  16  16   0   0
  0.1721723E+02  0.5525107E-09  0.5563734E-09  0.1170763E-08  0.5000000E-15
  1.000000000000000E-004
  CAR 
 unknown system                          
     18.83977308     -3.04916161 2000      8.35708064      1.00000000
     -3.049  0.0000E+00  0.0000E+00  0.0000E+00  0.0000E+00
     -3.038  0.0000E+00  0.0000E+00  0.0000E+00  0.0000E+00
     -3.027  0.0000E+00  0.0000E+00  0.0000E+00  0.0000E+00
     -3.016  0.0000E+00  0.0000E+00  0.0000E+00  0.0000E+00
     -3.005  0.0000E+00  0.0000E+00  0.0000E+00  0.0000E+00
     -2.994  0.0000E+00  0.0000E+00  0.0000E+00  0.0000E+00
     -2.983  0.0000E+00  0.0000E+00  0.0000E+00  0.0000E+00
     -2.973  0.0000E+00  0.0000E+00  0.0000E+00  0.0000E+00
     -2.962  0.0000E+00  0.0000E+00  0.0000E+00  0.0000E+00
     -2.951  0.0000E+00  0.0000E+00  0.0000E+00  0.0000E+00
     -2.940  0.0000E+00  0.0000E+00  0.0000E+00  0.0000E+00
     -2.929  0.0000E+00  0.0000E+00  0.0000E+00  0.0000E+00
     -2.918  0.0000E+00  0.0000E+00  0.0000E+00  0.0000E+00
     -2.907  0.0000E+00  0.0000E+00  0.0000E+00  0.0000E+00
     -2.896  0.0000E+00  0.0000E+00  0.0000E+00  0.0000E+00
     -2.885  0.0000E+00  0.0000E+00  0.0000E+00  0.0000E+00
     -2.874  0.0000E+00  0.0000E+00  0.0000E+00  0.0000E+00
     -2.863  0.0000E+00  0.0000E+00  0.0000E+00  0.0000E+00
     -2.852  0.0000E+00  0.0000E+00  0.0000E+00  0.0000E+00
     -2.841  0.0000E+00  0.0000E+00  0.0000E+00  0.0000E+00
     -2.830  0.0000E+00  0.0000E+00  0.0000E+00  0.0000E+00
     -2.819  0.0000E+00  0.0000E+00  0.0000E+00  0.0000E+00
     -2.808  0.0000E+00  0.0000E+00  0.0000E+00  0.0000E+00
     -2.797  0.0000E+00  0.0000E+00  0.0000E+00  0.0000E+00
     -2.786  0.0000E+00  0.0000E+00  0.0000E+00  0.0000E+00
     -2.775  0.0000E+00  0.0000E+00  0.0000E+00  0.0000E+00
     -2.764  0.0000E+00  0.0000E+00  0.0000E+00  0.0000E+00
     -2.754  0.0000E+00  0.0000E+00  0.0000E+00  0.0000E+00
     -2.743  0.0000E+00  0.0000E+00  0.0000E+00  0.0000E+00
     -2.732  0.0000E+00  0.0000E+00  0.0000E+00  0.0000E+00
     -2.721  0.0000E+00  0.0000E+00  0.0000E+00  0.0000E+00
     -2.710  0.0000E+00  0.0000E+00  0.0000E+00  0.0000E+00
     -2.699  0.0000E+00  0.0000E+00  0.0000E+00  0.0000E+00
     -2.688  0.0000E+00  0.0000E+00  0.0000E+00  0.0000E+00
     -2.677  0.0000E+00  0.0000E+00  0.0000E+00  0.0000E+00
     -2.666  0.0000E+00  0.0000E+00  0.0000E+00  0.0000E+00
     -2.655  0.0000E+00  0.0000E+00  0.0000E+00  0.0000E+00
     -2.644  0.0000E+00  0.0000E+00  0.0000E+00  0.0000E+00
     -2.633  0.0000E+00  0.0000E+00  0.0000E+00  0.0000E+00
     -2.622  0.0000E+00  0.0000E+00  0.0000E+00  0.0000E+00
     -2.611  0.0000E+00  0.0000E+00  0.0000E+00  0.0000E+00
     -2.600  0.0000E+00  0.0000E+00  0.0000E+00  0.0000E+00
     -2.589  0.0000E+00  0.0000E+00  0.0000E+00  0.0000E+00
     -2.578  0.0000E+00  0.0000E+00  0.0000E+00  0.0000E+00
     -2.567  0.0000E+00  0.0000E+00  0.0000E+00  0.0000E+00
     -2.556  0.0000E+00  0.0000E+00  0.0000E+00  0.0000E+00
     -2.545  0.0000E+00  0.0000E+00  0.0000E+00  0.0000E+00
     -2.535  0.0000E+00  0.0000E+00  0.0000E+00  0.0000E+00
     -2.524  0.0000E+00  0.0000E+00  0.0000E+00  0.0000E+00
     -2.513  0.0000E+00  0.0000E+00  0.0000E+00  0.0000E+00
     -2.502  0.0000E+00  0.0000E+00  0.0000E+00  0.0000E+00
     -2.491  0.0000E+00  0.0000E+00  0.0000E+00  0.0000E+00
     -2.480  0.0000E+00  0.0000E+00  0.0000E+00  0.0000E+00
     -2.469  0.0000E+00  0.0000E+00  0.0000E+00  0.0000E+00
     -2.458  0.0000E+00  0.0000E+00  0.0000E+00  0.0000E+00
     -2.447  0.0000E+00  0.0000E+00  0.0000E+00  0.0000E+00
     -2.436  0.0000E+00  0.0000E+00  0.0000E+00  0.0000E+00
     -2.425  0.0000E+00  0.0000E+00  0.0000E+00  0.0000E+00
     -2.414  0.0000E+00  0.0000E+00  0.0000E+00  0.0000E+00
     -2.403  0.0000E+00  0.0000E+00  0.0000E+00  0.0000E+00
     -2.392  0.0000E+00  0.0000E+00  0.0000E+00  0.0000E+00
     -2.381  0.0000E+00  0.0000E+00  0.0000E+00  0.0000E+00
     -2.370  0.0000E+00  0.0000E+00  0.0000E+00  0.0000E+00
     -2.359  0.0000E+00  0.0000E+00  0.0000E+00  0.0000E+00
     -2.348  0.0000E+00  0.0000E+00  0.0000E+00  0.0000E+00
     -2.337  0.0000E+00  0.0000E+00  0.0000E+00  0.0000E+00
     -2.326  0.0000E+00  0.0000E+00  0.0000E+00  0.0000E+00
     -2.316  0.0000E+00  0.0000E+00  0.0000E+00  0.0000E+00
     -2.305  0.0000E+00  0.0000E+00  0.0000E+00  0.0000E+00
     -2.294  0.0000E+00  0.0000E+00  0.0000E+00  0.0000E+00
     -2.283  0.0000E+00  0.0000E+00  0.0000E+00  0.0000E+00
     -2.272  0.0000E+00  0.0000E+00  0.0000E+00  0.0000E+00
     -2.261  0.0000E+00  0.0000E+00  0.0000E+00  0.0000E+00
     -2.250  0.0000E+00  0.0000E+00  0.0000E+00  0.0000E+00
     -2.239  0.0000E+00  0.0000E+00  0.0000E+00  0.0000E+00
     -2.228  0.0000E+00  0.0000E+00  0.0000E+00  0.0000E+00
     -2.217  0.0000E+00  0.0000E+00  0.0000E+00  0.0000E+00
     -2.206  0.0000E+00  0.0000E+00  0.0000E+00  0.0000E+00
     -2.195  0.0000E+00  0.0000E+00  0.0000E+00  0.0000E+00
     -2.184  0.0000E+00  0.0000E+00  0.0000E+00  0.0000E+00
     -2.173  0.0000E+00  0.0000E+00  0.0000E+00  0.0000E+00
     -2.162  0.0000E+00  0.0000E+00  0.0000E+00  0.0000E+00
     -2.151  0.0000E+00  0.0000E+00  0.0000E+00  0.0000E+00
     -2.140  0.0000E+00  0.0000E+00  0.0000E+00  0.0000E+00
     -2.129  0.0000E+00  0.0000E+00  0.0000E+00  0.0000E+00
     -2.118  0.0000E+00  0.0000E+00  0.0000E+00  0.0000E+00
     -2.107  0.0000E+00  0.0000E+00  0.0000E+00  0.0000E+00
     -2.097  0.0000E+00  0.0000E+00  0.0000E+00  0.0000E+00
     -2.086  0.0000E+00  0.0000E+00  0.0000E+00  0.0000E+00
     -2.075  0.0000E+00  0.0000E+00  0.0000E+00  0.0000E+00
     -2.064  0.0000E+00  0.0000E+00  0.0000E+00  0.0000E+00
     -2.053  0.0000E+00  0.0000E+00  0.0000E+00  0.0000E+00
     -2.042  0.0000E+00  0.0000E+00  0.0000E+00  0.0000E+00
     -2.031  0.0000E+00  0.0000E+00  0.0000E+00  0.0000E+00
     -2.020  0.0000E+00  0.0000E+00  0.0000E+00  0.0000E+00
     -2.009  0.0000E+00  0.0000E+00  0.0000E+00  0.0000E+00
     -1.998  0.0000E+00  0.0000E+00  0.0000E+00  0.0000E+00
     -1.987  0.0000E+00  0.0000E+00  0.0000E+00  0.0000E+00
     -1.976  0.0000E+00  0.0000E+00  0.0000E+00  0.0000E+00
     -1.965  0.0000E+00  0.0000E+00  0.0000E+00  0.0000E+00
     -1.954  0.0000E+00  0.0000E+00  0.0000E+00  0.0000E+00
     -1.943  0.0000E+00  0.0000E+00  0.0000E+00  0.0000E+00
     -1.932  0.0000E+00  0.0000E+00  0.0000E+00  0.0000E+00
     -1.921  0.0000E+00  0.0000E+00  0.0000E+00  0.0000E+00
     -1.910  0.0000E+00  0.0000E+00  0.0000E+00  0.0000E+00
     -1.899  0.0000E+00  0.0000E+00  0.0000E+00  0.0000E+00
     -1.888  0.0000E+00  0.0000E+00  0.0000E+00  0.0000E+00
     -1.878  0.0000E+00  0.0000E+00  0.0000E+00  0.0000E+00
     -1.867  0.0000E+00  0.0000E+00  0.0000E+00  0.0000E+00
     -1.856  0.0000E+00  0.0000E+00  0.0000E+00  0.0000E+00
     -1.845  0.0000E+00  0.0000E+00  0.0000E+00  0.0000E+00
     -1.834  0.0000E+00  0.0000E+00  0.0000E+00  0.0000E+00
     -1.823  0.0000E+00  0.0000E+00  0.0000E+00  0.0000E+00
     -1.812  0.0000E+00  0.0000E+00  0.0000E+00  0.0000E+00
     -1.801  0.0000E+00  0.0000E+00  0.0000E+00  0.0000E+00
     -1.790  0.0000E+00  0.0000E+00  0.0000E+00  0.0000E+00
     -1.779  0.0000E+00  0.0000E+00  0.0000E+00  0.0000E+00
     -1.768  0.0000E+00  0.0000E+00  0.0000E+00  0.0000E+00
     -1.757  0.0000E+00  0.0000E+00  0.0000E+00  0.0000E+00
     -1.746  0.0000E+00  0.0000E+00  0.0000E+00  0.0000E+00
     -1.735  0.0000E+00  0.0000E+00  0.0000E+00  0.0000E+00
     -1.724  0.0000E+00  0.0000E+00  0.0000E+00  0.0000E+00
     -1.713  0.0000E+00  0.0000E+00  0.0000E+00  0.0000E+00
     -1.702  0.0000E+00  0.0000E+00  0.0000E+00  0.0000E+00
     -1.691  0.0000E+00  0.0000E+00  0.0000E+00  0.0000E+00
     -1.680  0.0000E+00  0.0000E+00  0.0000E+00  0.0000E+00
     -1.669  0.0000E+00  0.0000E+00  0.0000E+00  0.0000E+00
     -1.659  0.0000E+00  0.0000E+00  0.0000E+00  0.0000E+00
     -1.648  0.0000E+00  0.0000E+00  0.0000E+00  0.0000E+00
     -1.637  0.0000E+00  0.0000E+00  0.0000E+00  0.0000E+00
     -1.626  0.0000E+00  0.0000E+00  0.0000E+00  0.0000E+00
     -1.615  0.0000E+00  0.0000E+00  0.0000E+00  0.0000E+00
     -1.604  0.0000E+00  0.0000E+00  0.0000E+00  0.0000E+00
     -1.593  0.0000E+00  0.0000E+00  0.0000E+00  0.0000E+00
     -1.582  0.0000E+00  0.0000E+00  0.0000E+00  0.0000E+00
     -1.571  0.0000E+00  0.0000E+00  0.0000E+00  0.0000E+00
     -1.560  0.0000E+00  0.0000E+00  0.0000E+00  0.0000E+00
     -1.549  0.0000E+00  0.0000E+00  0.0000E+00  0.0000E+00
     -1.538  0.0000E+00  0.0000E+00  0.0000E+00  0.0000E+00
     -1.527  0.0000E+00  0.0000E+00  0.0000E+00  0.0000E+00
     -1.516  0.0000E+00  0.0000E+00  0.0000E+00  0.0000E+00
     -1.505  0.0000E+00  0.0000E+00  0.0000E+00  0.0000E+00
     -1.494  0.0000E+00  0.0000E+00  0.0000E+00  0.0000E+00
     -1.483  0.0000E+00  0.0000E+00  0.0000E+00  0.0000E+00
     -1.472  0.0000E+00  0.0000E+00  0.0000E+00  0.0000E+00
     -1.461  0.0000E+00  0.0000E+00  0.0000E+00  0.0000E+00
     -1.450  0.0000E+00  0.0000E+00  0.0000E+00  0.0000E+00
     -1.440  0.0000E+00  0.0000E+00  0.0000E+00  0.0000E+00
     -1.429  0.0000E+00  0.0000E+00  0.0000E+00  0.0000E+00
     -1.418  0.0000E+00  0.0000E+00  0.0000E+00  0.0000E+00
     -1.407  0.0000E+00  0.0000E+00  0.0000E+00  0.0000E+00
     -1.396  0.0000E+00  0.0000E+00  0.0000E+00  0.0000E+00
     -1.385  0.0000E+00  0.0000E+00  0.0000E+00  0.0000E+00
     -1.374  0.0000E+00  0.0000E+00  0.0000E+00  0.0000E+00
     -1.363  0.0000E+00  0.0000E+00  0.0000E+00  0.0000E+00
     -1.352  0.0000E+00  0.0000E+00  0.0000E+00  0.0000E+00
     -1.341  0.0000E+00  0.0000E+00  0.0000E+00  0.0000E+00
     -1.330  0.0000E+00  0.0000E+00  0.0000E+00  0.0000E+00
     -1.319  0.0000E+00  0.0000E+00  0.0000E+00  0.0000E+00
     -1.308  0.0000E+00  0.0000E+00  0.0000E+00  0.0000E+00
     -1.297  0.0000E+00  0.0000E+00  0.0000E+00  0.0000E+00
     -1.286  0.0000E+00  0.0000E+00  0.0000E+00  0.0000E+00
     -1.275  0.0000E+00  0.0000E+00  0.0000E+00  0.0000E+00
     -1.264  0.0000E+00  0.0000E+00  0.0000E+00  0.0000E+00
     -1.253  0.0000E+00  0.0000E+00  0.0000E+00  0.0000E+00
     -1.242  0.0000E+00  0.0000E+00  0.0000E+00  0.0000E+00
     -1.231  0.0000E+00  0.0000E+00  0.0000E+00  0.0000E+00
     -1.221  0.0000E+00  0.0000E+00  0.0000E+00  0.0000E+00
     -1.210  0.0000E+00  0.0000E+00  0.0000E+00  0.0000E+00
     -1.199  0.0000E+00  0.0000E+00  0.0000E+00  0.0000E+00
     -1.188  0.0000E+00  0.0000E+00  0.0000E+00  0.0000E+00
     -1.177  0.0000E+00  0.0000E+00  0.0000E+00  0.0000E+00
     -1.166  0.0000E+00  0.0000E+00  0.0000E+00  0.0000E+00
     -1.155  0.0000E+00  0.0000E+00  0.0000E+00  0.0000E+00
     -1.144  0.0000E+00  0.0000E+00  0.0000E+00  0.0000E+00
     -1.133  0.0000E+00  0.0000E+00  0.0000E+00  0.0000E+00
     -1.122  0.0000E+00  0.0000E+00  0.0000E+00  0.0000E+00
     -1.111  0.0000E+00  0.0000E+00  0.0000E+00  0.0000E+00
     -1.100  0.0000E+00  0.0000E+00  0.0000E+00  0.0000E+00
     -1.089  0.0000E+00  0.0000E+00  0.0000E+00  0.0000E+00
     -1.078  0.0000E+00  0.0000E+00  0.0000E+00  0.0000E+00
     -1.067  0.0000E+00  0.0000E+00  0.0000E+00  0.0000E+00
     -1.056  0.0000E+00  0.0000E+00  0.0000E+00  0.0000E+00
     -1.045  0.1043E-02  0.1043E-02  0.1335E-05  0.1335E-05
     -1.034  0.1489E-01  0.1489E-01  0.7554E-04  0.7553E-04
     -1.023  0.3846E-01  0.3846E-01  0.3605E-03  0.3605E-03
     -1.012  0.7001E-01  0.7001E-01  0.9464E-03  0.9464E-03
     -1.002  0.1140E+00  0.1140E+00  0.1941E-02  0.1941E-02
     -0.991  0.1641E+00  0.1641E+00  0.3463E-02  0.3463E-02
     -0.980  0.2142E+00  0.2142E+00  0.5534E-02  0.5534E-02
     -0.969  0.2643E+00  0.2643E+00  0.8154E-02  0.8154E-02
     -0.958  0.3144E+00  0.3144E+00  0.1132E-01  0.1132E-01
     -0.947  0.3645E+00  0.3645E+00  0.1504E-01  0.1504E-01
     -0.936  0.4146E+00  0.4146E+00  0.1930E-01  0.1930E-01
     -0.925  0.4647E+00  0.4647E+00  0.2412E-01  0.2412E-01
     -0.914  0.5148E+00  0.5148E+00  0.2948E-01  0.2948E-01
     -0.903  0.5649E+00  0.5649E+00  0.3539E-01  0.3539E-01
     -0.892  0.6151E+00  0.6151E+00  0.4185E-01  0.4185E-01
     -0.881  0.6652E+00  0.6652E+00  0.4886E-01  0.4886E-01
     -0.870  0.6973E+00  0.6973E+00  0.5635E-01  0.5635E-01
     -0.859  0.7073E+00  0.7073E+00  0.6406E-01  0.6406E-01
     -0.848  0.7010E+00  0.7010E+00  0.7178E-01  0.7178E-01
     -0.837  0.6456E+00  0.6456E+00  0.7926E-01  0.7926E-01
     -0.826  0.5886E+00  0.5886E+00  0.8600E-01  0.8600E-01
     -0.815  0.5433E+00  0.5433E+00  0.9219E-01  0.9219E-01
     -0.804  0.5025E+00  0.5025E+00  0.9792E-01  0.9792E-01
     -0.793  0.4806E+00  0.4806E+00  0.1032E+00  0.1032E+00
     -0.783  0.4854E+00  0.4854E+00  0.1085E+00  0.1085E+00
     -0.772  0.4903E+00  0.4903E+00  0.1138E+00  0.1138E+00
     -0.761  0.4951E+00  0.4951E+00  0.1192E+00  0.1192E+00
     -0.750  0.5000E+00  0.5000E+00  0.1247E+00  0.1247E+00
     -0.739  0.5048E+00  0.5048E+00  0.1302E+00  0.1302E+00
     -0.728  0.5097E+00  0.5097E+00  0.1357E+00  0.1357E+00
     -0.717  0.5145E+00  0.5145E+00  0.1413E+00  0.1413E+00
     -0.706  0.5194E+00  0.5194E+00  0.1470E+00  0.1470E+00
     -0.695  0.5242E+00  0.5242E+00  0.1527E+00  0.1527E+00
     -0.684  0.5291E+00  0.5291E+00  0.1585E+00  0.1585E+00
     -0.673  0.5339E+00  0.5339E+00  0.1643E+00  0.1643E+00
     -0.662  0.5387E+00  0.5387E+00  0.1702E+00  0.1702E+00
     -0.651  0.5436E+00  0.5436E+00  0.1761E+00  0.1761E+00
     -0.640  0.5484E+00  0.5484E+00  0.1821E+00  0.1821E+00
     -0.629  0.5533E+00  0.5533E+00  0.1881E+00  0.1881E+00
     -0.618  0.5581E+00  0.5581E+00  0.1942E+00  0.1942E+00
     -0.607  0.5630E+00  0.5630E+00  0.2003E+00  0.2003E+00
     -0.596  0.5678E+00  0.5678E+00  0.2065E+00  0.2065E+00
     -0.585  0.5727E+00  0.5727E+00  0.2128E+00  0.2128E+00
     -0.574  0.5775E+00  0.5775E+00  0.2191E+00  0.2191E+00
     -0.564  0.5823E+00  0.5823E+00  0.2254E+00  0.2254E+00
     -0.553  0.5872E+00  0.5872E+00  0.2318E+00  0.2318E+00
     -0.542  0.5920E+00  0.5920E+00  0.2383E+00  0.2383E+00
     -0.531  0.5969E+00  0.5969E+00  0.2448E+00  0.2448E+00
     -0.520  0.6015E+00  0.6015E+00  0.2514E+00  0.2514E+00
     -0.509  0.6053E+00  0.6053E+00  0.2580E+00  0.2580E+00
     -0.498  0.6079E+00  0.6079E+00  0.2646E+00  0.2646E+00
     -0.487  0.6093E+00  0.6093E+00  0.2713E+00  0.2713E+00
     -0.476  0.6100E+00  0.6100E+00  0.2779E+00  0.2779E+00
     -0.465  0.6105E+00  0.6105E+00  0.2846E+00  0.2846E+00
     -0.454  0.6110E+00  0.6110E+00  0.2913E+00  0.2913E+00
     -0.443  0.6115E+00  0.6115E+00  0.2980E+00  0.2980E+00
     -0.432  0.6120E+00  0.6120E+00  0.3047E+00  0.3047E+00
     -0.421  0.6125E+00  0.6125E+00  0.3114E+00  0.3114E+00
     -0.410  0.6129E+00  0.6129E+00  0.3181E+00  0.3181E+00
     -0.399  0.6130E+00  0.6130E+00  0.3248E+00  0.3248E+00
     -0.388  0.6138E+00  0.6138E+00  0.3315E+00  0.3315E+00
     -0.377  0.6147E+00  0.6147E+00  0.3383E+00  0.3383E+00
     -0.366  0.6165E+00  0.6165E+00  0.3450E+00  0.3450E+00
     -0.355  0.6184E+00  0.6184E+00  0.3518E+00  0.3518E+00
     -0.345  0.6202E+00  0.6202E+00  0.3586E+00  0.3586E+00
     -0.334  0.6221E+00  0.6221E+00  0.3654E+00  0.3654E+00
     -0.323  0.6239E+00  0.6239E+00  0.3722E+00  0.3722E+00
     -0.312  0.6257E+00  0.6257E+00  0.3790E+00  0.3790E+00
     -0.301  0.6276E+00  0.6276E+00  0.3859E+00  0.3859E+00
     -0.290  0.6294E+00  0.6294E+00  0.3928E+00  0.3928E+00
     -0.279  0.6313E+00  0.6313E+00  0.3997E+00  0.3997E+00
     -0.268  0.6331E+00  0.6331E+00  0.4066E+00  0.4066E+00
     -0.257  0.6355E+00  0.6355E+00  0.4135E+00  0.4135E+00
     -0.246  0.6389E+00  0.6389E+00  0.4205E+00  0.4205E+00
     -0.235  0.6432E+00  0.6432E+00  0.4275E+00  0.4275E+00
     -0.224  0.6485E+00  0.6485E+00  0.4346E+00  0.4346E+00
     -0.213  0.6540E+00  0.6540E+00  0.4417E+00  0.4417E+00
     -0.202  0.6595E+00  0.6595E+00  0.4489E+00  0.4489E+00
     -0.191  0.6651E+00  0.6651E+00  0.4562E+00  0.4562E+00
     -0.180  0.6706E+00  0.6706E+00  0.4635E+00  0.4635E+00
     -0.169  0.6761E+00  0.6761E+00  0.4709E+00  0.4709E+00
     -0.158  0.6816E+00  0.6816E+00  0.4783E+00  0.4783E+00
     -0.147  0.6871E+00  0.6871E+00  0.4858E+00  0.4858E+00
     -0.136  0.6926E+00  0.6926E+00  0.4933E+00  0.4933E+00
     -0.126  0.6981E+00  0.6981E+00  0.5010E+00  0.5010E+00
     -0.115  0.7036E+00  0.7036E+00  0.5086E+00  0.5086E+00
     -0.104  0.7091E+00  0.7091E+00  0.5164E+00  0.5164E+00
     -0.093  0.7146E+00  0.7146E+00  0.5242E+00  0.5242E+00
     -0.082  0.7202E+00  0.7202E+00  0.5320E+00  0.5320E+00
     -0.071  0.7257E+00  0.7257E+00  0.5399E+00  0.5399E+00
     -0.060  0.7312E+00  0.7312E+00  0.5479E+00  0.5479E+00
     -0.049  0.7367E+00  0.7367E+00  0.5559E+00  0.5559E+00
     -0.038  0.7422E+00  0.7422E+00  0.5640E+00  0.5640E+00
     -0.027  0.7477E+00  0.7477E+00  0.5722E+00  0.5722E+00
     -0.016  0.7532E+00  0.7532E+00  0.5804E+00  0.5804E+00
     -0.005  0.7587E+00  0.7587E+00  0.5887E+00  0.5887E+00
      0.006  0.7642E+00  0.7642E+00  0.5970E+00  0.5970E+00
      0.017  0.7698E+00  0.7698E+00  0.6054E+00  0.6054E+00
      0.028  0.7753E+00  0.7753E+00  0.6139E+00  0.6139E+00
      0.039  0.7875E+00  0.7875E+00  0.6224E+00  0.6224E+00
      0.050  0.1267E+01  0.1267E+01  0.6335E+00  0.6335E+00
      0.061  0.1516E+01  0.1516E+01  0.6497E+00  0.6497E+00
      0.072  0.1368E+01  0.1368E+01  0.6655E+00  0.6655E+00
      0.083  0.1220E+01  0.1220E+01  0.6796E+00  0.6796E+00
      0.093  0.1076E+01  0.1076E+01  0.6922E+00  0.6922E+00
      0.104  0.9357E+00  0.9357E+00  0.7032E+00  0.7032E+00
      0.115  0.7997E+00  0.7997E+00  0.7127E+00  0.7127E+00
      0.126  0.7695E+00  0.7695E+00  0.7211E+00  0.7211E+00
      0.137  0.7948E+00  0.7948E+00  0.7297E+00  0.7297E+00
      0.148  0.8271E+00  0.8271E+00  0.7386E+00  0.7386E+00
      0.159  0.8793E+00  0.8793E+00  0.7479E+00  0.7479E+00
      0.170  0.9507E+00  0.9507E+00  0.7579E+00  0.7579E+00
      0.181  0.1027E+01  0.1027E+01  0.7687E+00  0.7687E+00
      0.192  0.1105E+01  0.1105E+01  0.7804E+00  0.7804E+00
      0.203  0.1184E+01  0.1184E+01  0.7929E+00  0.7929E+00
      0.214  0.1264E+01  0.1264E+01  0.8063E+00  0.8063E+00
      0.225  0.1346E+01  0.1346E+01  0.8206E+00  0.8206E+00
      0.236  0.1428E+01  0.1428E+01  0.8358E+00  0.8358E+00
      0.247  0.1509E+01  0.1509E+01  0.8519E+00  0.8519E+00
      0.258  0.1582E+01  0.1582E+01  0.8688E+00  0.8688E+00
      0.269  0.1651E+01  0.1651E+01  0.8865E+00  0.8865E+00
      0.280  0.1703E+01  0.1703E+01  0.9049E+00  0.9049E+00
      0.291  0.1677E+01  0.1677E+01  0.9235E+00  0.9235E+00
      0.302  0.1608E+01  0.1608E+01  0.9415E+00  0.9415E+00
      0.312  0.1507E+01  0.1507E+01  0.9586E+00  0.9586E+00
      0.323  0.1407E+01  0.1407E+01  0.9746E+00  0.9746E+00
      0.334  0.1309E+01  0.1309E+01  0.9894E+00  0.9894E+00
      0.345  0.1217E+01  0.1217E+01  0.1003E+01  0.1003E+01
      0.356  0.1171E+01  0.1171E+01  0.1016E+01  0.1016E+01
      0.367  0.1137E+01  0.1137E+01  0.1029E+01  0.1029E+01
      0.378  0.1103E+01  0.1103E+01  0.1041E+01  0.1041E+01
      0.389  0.1068E+01  0.1068E+01  0.1053E+01  0.1053E+01
      0.400  0.1033E+01  0.1033E+01  0.1065E+01  0.1065E+01
      0.411  0.9963E+00  0.9963E+00  0.1076E+01  0.1076E+01
      0.422  0.9589E+00  0.9589E+00  0.1086E+01  0.1086E+01
      0.433  0.9279E+00  0.9279E+00  0.1097E+01  0.1097E+01
      0.444  0.9090E+00  0.9090E+00  0.1107E+01  0.1107E+01
      0.455  0.8922E+00  0.8922E+00  0.1117E+01  0.1117E+01
      0.466  0.8713E+00  0.8713E+00  0.1126E+01  0.1126E+01
      0.477  0.8461E+00  0.8461E+00  0.1136E+01  0.1136E+01
      0.488  0.8153E+00  0.8153E+00  0.1145E+01  0.1145E+01
      0.499  0.7694E+00  0.7695E+00  0.1153E+01  0.1153E+01
      0.510  0.7169E+00  0.7169E+00  0.1162E+01  0.1162E+01
      0.521  0.6750E+00  0.6750E+00  0.1169E+01  0.1169E+01
      0.531  0.6692E+00  0.6692E+00  0.1176E+01  0.1176E+01
      0.542  0.6782E+00  0.6782E+00  0.1184E+01  0.1184E+01
      0.553  0.7003E+00  0.7003E+00  0.1191E+01  0.1191E+01
      0.564  0.7440E+00  0.7439E+00  0.1199E+01  0.1199E+01
      0.575  0.8065E+00  0.8065E+00  0.1208E+01  0.1208E+01
      0.586  0.8746E+00  0.8746E+00  0.1217E+01  0.1217E+01
      0.597  0.9476E+00  0.9475E+00  0.1227E+01  0.1227E+01
      0.608  0.1025E+01  0.1025E+01  0.1238E+01  0.1238E+01
      0.619  0.1105E+01  0.1105E+01  0.1249E+01  0.1249E+01
      0.630  0.1189E+01  0.1189E+01  0.1262E+01  0.1262E+01
      0.641  0.1262E+01  0.1262E+01  0.1275E+01  0.1275E+01
      0.652  0.1313E+01  0.1313E+01  0.1290E+01  0.1290E+01
      0.663  0.1358E+01  0.1358E+01  0.1304E+01  0.1304E+01
      0.674  0.1416E+01  0.1416E+01  0.1319E+01  0.1319E+01
      0.685  0.1486E+01  0.1486E+01  0.1335E+01  0.1335E+01
      0.696  0.1557E+01  0.1557E+01  0.1352E+01  0.1352E+01
      0.707  0.1633E+01  0.1633E+01  0.1369E+01  0.1369E+01
      0.718  0.1705E+01  0.1705E+01  0.1388E+01  0.1388E+01
      0.729  0.1771E+01  0.1771E+01  0.1407E+01  0.1407E+01
      0.740  0.1833E+01  0.1833E+01  0.1426E+01  0.1426E+01
      0.750  0.1897E+01  0.1897E+01  0.1447E+01  0.1447E+01
      0.761  0.1964E+01  0.1964E+01  0.1468E+01  0.1468E+01
      0.772  0.2029E+01  0.2029E+01  0.1490E+01  0.1490E+01
      0.783  0.2009E+01  0.2009E+01  0.1512E+01  0.1512E+01
      0.794  0.2069E+01  0.2069E+01  0.1534E+01  0.1534E+01
      0.805  0.2270E+01  0.2270E+01  0.1558E+01  0.1558E+01
      0.816  0.2358E+01  0.2358E+01  0.1583E+01  0.1583E+01
      0.827  0.2360E+01  0.2360E+01  0.1609E+01  0.1609E+01
      0.838  0.2298E+01  0.2298E+01  0.1635E+01  0.1635E+01
      0.849  0.2113E+01  0.2113E+01  0.1659E+01  0.1659E+01
      0.860  0.2157E+01  0.2157E+01  0.1683E+01  0.1683E+01
      0.871  0.2217E+01  0.2217E+01  0.1707E+01  0.1707E+01
      0.882  0.2276E+01  0.2276E+01  0.1731E+01  0.1731E+01
      0.893  0.2333E+01  0.2333E+01  0.1756E+01  0.1756E+01
      0.904  0.2378E+01  0.2378E+01  0.1782E+01  0.1782E+01
      0.915  0.2427E+01  0.2427E+01  0.1809E+01  0.1809E+01
      0.926  0.2315E+01  0.2315E+01  0.1835E+01  0.1835E+01
      0.937  0.2122E+01  0.2122E+01  0.1859E+01  0.1859E+01
      0.948  0.1817E+01  0.1817E+01  0.1881E+01  0.1881E+01
      0.959  0.1595E+01  0.1595E+01  0.1899E+01  0.1899E+01
      0.969  0.1491E+01  0.1491E+01  0.1916E+01  0.1916E+01
      0.980  0.1398E+01  0.1398E+01  0.1932E+01  0.1932E+01
      0.991  0.1309E+01  0.1309E+01  0.1947E+01  0.1947E+01
      1.002  0.1222E+01  0.1222E+01  0.1961E+01  0.1961E+01
      1.013  0.1138E+01  0.1138E+01  0.1974E+01  0.1974E+01
      1.024  0.1058E+01  0.1058E+01  0.1986E+01  0.1986E+01
      1.035  0.9550E+00  0.9550E+00  0.1997E+01  0.1997E+01
      1.046  0.6276E+00  0.6276E+00  0.2005E+01  0.2005E+01
      1.057  0.4796E+00  0.4796E+00  0.2011E+01  0.2011E+01
      1.068  0.3989E+00  0.3989E+00  0.2016E+01  0.2016E+01
      1.079  0.3691E+00  0.3691E+00  0.2020E+01  0.2020E+01
      1.090  0.3890E+00  0.3890E+00  0.2024E+01  0.2024E+01
      1.101  0.4312E+00  0.4312E+00  0.2029E+01  0.2029E+01
      1.112  0.6043E+00  0.6043E+00  0.2034E+01  0.2034E+01
      1.123  0.1068E+01  0.1068E+01  0.2043E+01  0.2043E+01
      1.134  0.2052E+01  0.2051E+01  0.2060E+01  0.2060E+01
      1.145  0.3113E+01  0.3113E+01  0.2088E+01  0.2088E+01
      1.156  0.4074E+01  0.4074E+01  0.2128E+01  0.2128E+01
      1.167  0.4816E+01  0.4816E+01  0.2177E+01  0.2177E+01
      1.178  0.5115E+01  0.5114E+01  0.2231E+01  0.2231E+01
      1.188  0.5262E+01  0.5262E+01  0.2289E+01  0.2289E+01
      1.199  0.5479E+01  0.5479E+01  0.2347E+01  0.2347E+01
      1.210  0.5918E+01  0.5918E+01  0.2410E+01  0.2410E+01
      1.221  0.6717E+01  0.6717E+01  0.2478E+01  0.2478E+01
      1.232  0.7993E+01  0.7992E+01  0.2559E+01  0.2559E+01
      1.243  0.8254E+01  0.8254E+01  0.2650E+01  0.2650E+01
      1.254  0.7109E+01  0.7110E+01  0.2736E+01  0.2736E+01
      1.265  0.4754E+01  0.4754E+01  0.2800E+01  0.2800E+01
      1.276  0.3449E+01  0.3449E+01  0.2844E+01  0.2844E+01
      1.287  0.2560E+01  0.2560E+01  0.2877E+01  0.2877E+01
      1.298  0.2098E+01  0.2098E+01  0.2902E+01  0.2902E+01
      1.309  0.1862E+01  0.1862E+01  0.2924E+01  0.2924E+01
      1.320  0.1768E+01  0.1768E+01  0.2943E+01  0.2943E+01
      1.331  0.1925E+01  0.1925E+01  0.2963E+01  0.2963E+01
      1.342  0.1762E+01  0.1762E+01  0.2985E+01  0.2985E+01
      1.353  0.1148E+01  0.1148E+01  0.3000E+01  0.3000E+01
      1.364  0.1073E+01  0.1073E+01  0.3012E+01  0.3012E+01
      1.375  0.1347E+01  0.1347E+01  0.3025E+01  0.3025E+01
      1.386  0.1857E+01  0.1857E+01  0.3042E+01  0.3042E+01
      1.397  0.2511E+01  0.2511E+01  0.3068E+01  0.3068E+01
      1.407  0.2527E+01  0.2527E+01  0.3096E+01  0.3096E+01
      1.418  0.2412E+01  0.2412E+01  0.3123E+01  0.3123E+01
      1.429  0.2244E+01  0.2244E+01  0.3148E+01  0.3148E+01
      1.440  0.2165E+01  0.2165E+01  0.3172E+01  0.3172E+01
      1.451  0.2145E+01  0.2145E+01  0.3196E+01  0.3196E+01
      1.462  0.2160E+01  0.2160E+01  0.3219E+01  0.3219E+01
      1.473  0.2198E+01  0.2198E+01  0.3243E+01  0.3243E+01
      1.484  0.2271E+01  0.2271E+01  0.3268E+01  0.3268E+01
      1.495  0.2359E+01  0.2359E+01  0.3293E+01  0.3293E+01
      1.506  0.2466E+01  0.2466E+01  0.3319E+01  0.3319E+01
      1.517  0.2580E+01  0.2580E+01  0.3347E+01  0.3347E+01
      1.528  0.2721E+01  0.2721E+01  0.3376E+01  0.3376E+01
      1.539  0.2921E+01  0.2921E+01  0.3407E+01  0.3407E+01
      1.550  0.3103E+01  0.3103E+01  0.3440E+01  0.3440E+01
      1.561  0.3278E+01  0.3278E+01  0.3475E+01  0.3475E+01
      1.572  0.3266E+01  0.3266E+01  0.3511E+01  0.3511E+01
      1.583  0.3350E+01  0.3350E+01  0.3547E+01  0.3547E+01
      1.594  0.3454E+01  0.3454E+01  0.3584E+01  0.3584E+01
      1.605  0.3441E+01  0.3441E+01  0.3622E+01  0.3622E+01
      1.616  0.3251E+01  0.3251E+01  0.3659E+01  0.3659E+01
      1.626  0.2939E+01  0.2939E+01  0.3693E+01  0.3693E+01
      1.637  0.2470E+01  0.2470E+01  0.3723E+01  0.3723E+01
      1.648  0.2373E+01  0.2373E+01  0.3749E+01  0.3749E+01
      1.659  0.2264E+01  0.2264E+01  0.3774E+01  0.3774E+01
      1.670  0.2111E+01  0.2111E+01  0.3798E+01  0.3798E+01
      1.681  0.1976E+01  0.1976E+01  0.3821E+01  0.3821E+01
      1.692  0.1858E+01  0.1858E+01  0.3842E+01  0.3842E+01
      1.703  0.1757E+01  0.1757E+01  0.3862E+01  0.3862E+01
      1.714  0.1673E+01  0.1673E+01  0.3880E+01  0.3880E+01
      1.725  0.1627E+01  0.1627E+01  0.3898E+01  0.3898E+01
      1.736  0.1617E+01  0.1617E+01  0.3916E+01  0.3916E+01
      1.747  0.1466E+01  0.1466E+01  0.3933E+01  0.3933E+01
      1.758  0.1284E+01  0.1284E+01  0.3948E+01  0.3948E+01
      1.769  0.1112E+01  0.1112E+01  0.3961E+01  0.3961E+01
      1.780  0.9495E+00  0.9495E+00  0.3973E+01  0.3973E+01
      1.791  0.7882E+00  0.7882E+00  0.3982E+01  0.3982E+01
      1.802  0.6045E+00  0.6045E+00  0.3990E+01  0.3990E+01
      1.813  0.4080E+00  0.4080E+00  0.3995E+01  0.3995E+01
      1.824  0.2106E+00  0.2106E+00  0.3999E+01  0.3999E+01
      1.835  0.2432E-01  0.2432E-01  0.4000E+01  0.4000E+01
      1.845  0.0000E+00  0.0000E+00  0.4000E+01  0.4000E+01
      1.856  0.0000E+00  0.0000E+00  0.4000E+01  0.4000E+01
      1.867  0.0000E+00  0.0000E+00  0.4000E+01  0.4000E+01
      1.878  0.0000E+00  0.0000E+00  0.4000E+01  0.4000E+01
      1.889  0.6244E-01  0.6241E-01  0.4000E+01  0.4000E+01
      1.900  0.2061E+01  0.2061E+01  0.4009E+01  0.4009E+01
      1.911  0.5487E+01  0.5487E+01  0.4049E+01  0.4049E+01
      1.922  0.1207E+02  0.1207E+02  0.4139E+01  0.4139E+01
      1.933  0.1316E+02  0.1316E+02  0.4289E+01  0.4289E+01
      1.944  0.1195E+02  0.1195E+02  0.4423E+01  0.4423E+01
      1.955  0.1415E+02  0.1414E+02  0.4566E+01  0.4566E+01
      1.966  0.1225E+02  0.1225E+02  0.4720E+01  0.4720E+01
      1.977  0.1005E+02  0.1005E+02  0.4837E+01  0.4837E+01
      1.988  0.5038E+01  0.5039E+01  0.4921E+01  0.4921E+01
      1.999  0.4601E+01  0.4601E+01  0.4969E+01  0.4969E+01
      2.010  0.6824E+01  0.6824E+01  0.5033E+01  0.5033E+01
      2.021  0.8325E+01  0.8324E+01  0.5115E+01  0.5115E+01
      2.032  0.1947E+02  0.1947E+02  0.5259E+01  0.5259E+01
      2.043  0.2675E+02  0.2675E+02  0.5535E+01  0.5535E+01
      2.054  0.1485E+02  0.1485E+02  0.5756E+01  0.5756E+01
      2.064  0.8773E+01  0.8773E+01  0.5878E+01  0.5878E+01
      2.075  0.6407E+01  0.6407E+01  0.5961E+01  0.5961E+01
      2.086  0.4616E+01  0.4616E+01  0.6021E+01  0.6021E+01
      2.097  0.4469E+01  0.4469E+01  0.6067E+01  0.6067E+01
      2.108  0.7519E+01  0.7518E+01  0.6129E+01  0.6129E+01
      2.119  0.1551E+02  0.1551E+02  0.6255E+01  0.6255E+01
      2.130  0.2417E+02  0.2417E+02  0.6474E+01  0.6474E+01
      2.141  0.2058E+02  0.2058E+02  0.6740E+01  0.6740E+01
      2.152  0.9718E+01  0.9719E+01  0.6901E+01  0.6901E+01
      2.163  0.5241E+01  0.5241E+01  0.6976E+01  0.6976E+01
      2.174  0.9356E+01  0.9355E+01  0.7052E+01  0.7052E+01
      2.185  0.1845E+02  0.1845E+02  0.7195E+01  0.7195E+01
      2.196  0.2238E+02  0.2238E+02  0.7429E+01  0.7429E+01
      2.207  0.2337E+02  0.2337E+02  0.7675E+01  0.7675E+01
      2.218  0.1989E+02  0.1989E+02  0.7908E+01  0.7908E+01
      2.229  0.2406E+02  0.2406E+02  0.8152E+01  0.8152E+01
      2.240  0.2272E+02  0.2272E+02  0.8414E+01  0.8414E+01
      2.251  0.1787E+02  0.1787E+02  0.8630E+01  0.8630E+01
      2.262  0.1585E+02  0.1585E+02  0.8813E+01  0.8813E+01
      2.273  0.1867E+02  0.1867E+02  0.8997E+01  0.8997E+01
      2.283  0.2209E+02  0.2209E+02  0.9220E+01  0.9220E+01
      2.294  0.2437E+02  0.2437E+02  0.9486E+01  0.9486E+01
      2.305  0.2151E+02  0.2151E+02  0.9737E+01  0.9737E+01
      2.316  0.1971E+02  0.1971E+02  0.9961E+01  0.9961E+01
      2.327  0.2150E+02  0.2150E+02  0.1017E+02  0.1017E+02
      2.338  0.2441E+02  0.2441E+02  0.1042E+02  0.1042E+02
      2.349  0.2069E+02  0.2069E+02  0.1068E+02  0.1068E+02
      2.360  0.2316E+02  0.2317E+02  0.1091E+02  0.1091E+02
      2.371  0.2445E+02  0.2445E+02  0.1116E+02  0.1116E+02