       N       E                     dE             d eps       ncg     rms          rms(c)
DAV:   1     0.732390513709E+03    0.73239E+03   -0.55137E+04 43032   0.105E+03
DAV:   2    -0.264853033326E+02   -0.75888E+03   -0.71500E+03 44856   0.272E+02
DAV:   3    -0.509683946928E+02   -0.24483E+02   -0.24135E+02 48256   0.515E+01
DAV:   4    -0.511460375357E+02   -0.17764E+00   -0.17747E+00 46832   0.444E+00
DAV:   5    -0.511481284593E+02   -0.20909E-02   -0.20909E-02 46928   0.498E-01    0.247E+01
DAV:   6    -0.460995283835E+02    0.50486E+01   -0.22995E+01 46912   0.223E+01    0.149E+01
DAV:   7    -0.474358931699E+02   -0.13364E+01   -0.94014E-01 45376   0.380E+00    0.855E+00
DAV:   8    -0.483087461319E+02   -0.87285E+00   -0.54846E-01 46136   0.263E+00    0.338E+00
DAV:   9    -0.483851123893E+02   -0.76366E-01   -0.34255E-02 47568   0.676E-01    0.665E-01
DAV:  10    -0.484076789060E+02   -0.22567E-01   -0.11374E-02 47440   0.421E-01    0.305E-01
DAV:  11    -0.484099111483E+02   -0.22322E-02   -0.14296E-03 46304   0.146E-01    0.156E-01
DAV:  12    -0.484101271132E+02   -0.21596E-03   -0.27145E-04 47544   0.621E-02    0.554E-02
DAV:  13    -0.484101606183E+02   -0.33505E-04   -0.38311E-05 47776   0.219E-02    0.130E-02
DAV:  14    -0.484101628675E+02   -0.22491E-05   -0.64796E-06 46952   0.937E-03    0.567E-03
DAV:  15    -0.484101624066E+02    0.46089E-06   -0.48844E-07 40592   0.262E-03    0.242E-03
DAV:  16    -0.484101620504E+02    0.35617E-06   -0.94507E-08 27160   0.113E-03    0.777E-04
DAV:  17    -0.484101620169E+02    0.33489E-07   -0.19059E-08 25832   0.504E-04
   1 F= -.48410162E+02 E0= -.48410084E+02  d E =-.484102E+02  mag=     0.0000
       N       E                     dE             d eps       ncg     rms          rms(c)
DAV:   1    -0.484101953396E+02   -0.33289E-04   -0.20415E-03 46400   0.144E-01    0.256E-02
DAV:   2    -0.484101794408E+02    0.15899E-04   -0.17258E-05 46400   0.221E-02    0.143E-02
DAV:   3    -0.484101720444E+02    0.73964E-05   -0.99461E-06 46448   0.153E-02    0.385E-03
DAV:   4    -0.484101720873E+02   -0.42928E-07   -0.76664E-07 46304   0.419E-03
   2 F= -.48410172E+02 E0= -.48410087E+02  d E =-.100704E-04  mag=     0.0000
       N       E                     dE             d eps       ncg     rms          rms(c)
DAV:   1    -0.484102567883E+02   -0.84744E-04   -0.68186E-03 46400   0.263E-01    0.466E-02
DAV:   2    -0.484102027013E+02    0.54087E-04   -0.57978E-05 46384   0.406E-02    0.260E-02
DAV:   3    -0.484101774083E+02    0.25293E-04   -0.33709E-05 46432   0.282E-02    0.731E-03
DAV:   4    -0.484101775440E+02   -0.13579E-06   -0.26156E-06 47064   0.773E-03    0.612E-03
DAV:   5    -0.484101775667E+02   -0.22692E-07   -0.55955E-08 26448   0.130E-03
   3 F= -.48410178E+02 E0= -.48410080E+02  d E =-.155498E-04  mag=     0.0000
       N       E                     dE             d eps       ncg     rms          rms(c)
DAV:   1    -0.484101828097E+02   -0.52657E-05   -0.14478E-03 44128   0.109E-01    0.918E-03
DAV:   2    -0.484101815386E+02    0.12711E-05   -0.86065E-06 47496   0.137E-02    0.511E-03
DAV:   3    -0.484101807200E+02    0.81858E-06   -0.10372E-06 45992   0.487E-03    0.146E-03
DAV:   4    -0.484101806977E+02    0.22361E-07   -0.88089E-08 25592   0.155E-03
   4 F= -.48410181E+02 E0= -.48410087E+02  d E =-.313095E-05  mag=    -0.0000
       N       E                     dE             d eps       ncg     rms          rms(c)
DAV:   1    -0.484102006000E+02   -0.19880E-04   -0.12499E-02 44000   0.319E-01    0.269E-02
DAV:   2    -0.484101897777E+02    0.10822E-04   -0.74362E-05 47440   0.403E-02    0.150E-02
DAV:   3    -0.484101821991E+02    0.75785E-05   -0.90016E-06 45968   0.143E-02    0.437E-03
DAV:   4    -0.484101820481E+02    0.15100E-06   -0.82930E-07 47584   0.460E-03    0.328E-03
DAV:   5    -0.484101820558E+02   -0.76725E-08   -0.43678E-08 25824   0.121E-03
   5 F= -.48410182E+02 E0= -.48410100E+02  d E =-.448907E-05  mag=     0.0000
       N       E                     dE             d eps       ncg     rms          rms(c)
DAV:   1    -0.484101911436E+02   -0.90955E-05   -0.19982E-03 45264   0.131E-01    0.145E-02
DAV:   2    -0.484101868933E+02    0.42503E-05   -0.13075E-05 47064   0.177E-02    0.804E-03
DAV:   3    -0.484101845306E+02    0.23627E-05   -0.29490E-06 46128   0.831E-03    0.221E-03
DAV:   4    -0.484101845258E+02    0.47949E-08   -0.22682E-07 26968   0.244E-03
   6 F= -.48410185E+02 E0= -.48410106E+02  d E =-.247001E-05  mag=     0.0000
       N       E                     dE             d eps       ncg     rms          rms(c)
DAV:   1    -0.484101885390E+02   -0.40084E-05   -0.10350E-03 45376   0.939E-02    0.104E-02
DAV:   2    -0.484101862134E+02    0.23257E-05   -0.68225E-06 47120   0.129E-02    0.579E-03
DAV:   3    -0.484101849481E+02    0.12653E-05   -0.15649E-06 46176   0.607E-03    0.176E-03
DAV:   4    -0.484101849419E+02    0.61245E-08   -0.12500E-07 25760   0.183E-03
   7 F= -.48410185E+02 E0= -.48410109E+02  d E =-.288614E-05  mag=     0.0000
       N       E                     dE             d eps       ncg     rms          rms(c)
DAV:   1    -0.484101918601E+02   -0.69121E-05   -0.19528E-03 45152   0.129E-01    0.138E-02
DAV:   2    -0.484101884035E+02    0.34567E-05   -0.12466E-05 47136   0.170E-02    0.766E-03
DAV:   3    -0.484101863641E+02    0.20394E-05   -0.23638E-06 45984   0.756E-03    0.207E-03
DAV:   4    -0.484101863644E+02   -0.31650E-09   -0.17801E-07 26232   0.211E-03
   8 F= -.48410186E+02 E0= -.48410104E+02  d E =-.142243E-05  mag=     0.0000
       N       E                     dE             d eps       ncg     rms          rms(c)
DAV:   1    -0.484101868755E+02   -0.51147E-06   -0.14597E-04 45344   0.352E-02    0.384E-03
DAV:   2    -0.484101865804E+02    0.29516E-06   -0.94495E-07 47184   0.478E-03    0.214E-03
DAV:   3    -0.484101864140E+02    0.16634E-06   -0.17851E-07 26304   0.216E-03    0.672E-04
DAV:   4    -0.484101864148E+02   -0.76761E-09   -0.29118E-08 23856   0.790E-04
   9 F= -.48410186E+02 E0= -.48410102E+02  d E =-.147285E-05  mag=     0.0000
       N       E                     dE             d eps       ncg     rms          rms(c)
DAV:   1    -0.484101893141E+02   -0.29001E-05   -0.61954E-04 45632   0.730E-02    0.842E-03
DAV:   2    -0.484101878319E+02    0.14823E-05   -0.42503E-06 47088   0.989E-03    0.468E-03
DAV:   3    -0.484101870247E+02    0.80716E-06   -0.10010E-06 46112   0.479E-03    0.122E-03
DAV:   4    -0.484101870270E+02   -0.23138E-08   -0.72323E-08 25088   0.127E-03
  10 F= -.48410187E+02 E0= -.48410099E+02  d E =-.612241E-06  mag=     0.0000
       N       E                     dE             d eps       ncg     rms          rms(c)
DAV:   1    -0.484101872164E+02   -0.19171E-06   -0.40678E-05 45840   0.187E-02    0.219E-03
DAV:   2    -0.484101871010E+02    0.11541E-06   -0.25907E-07 27808   0.261E-03    0.123E-03
DAV:   3    -0.484101870473E+02    0.53753E-07   -0.93853E-08 24368   0.145E-03
  11 F= -.48410187E+02 E0= -.48410099E+02  d E =-.632477E-06  mag=    -0.0000
