       N       E                     dE             d eps       ncg     rms          rms(c)
DAV:   1     0.731429902900E+03    0.73143E+03   -0.55126E+04 43048   0.105E+03
DAV:   2    -0.265710555431E+02   -0.75800E+03   -0.71429E+03 44944   0.271E+02
DAV:   3    -0.509691435116E+02   -0.24398E+02   -0.24056E+02 48256   0.514E+01
DAV:   4    -0.511447106414E+02   -0.17557E+00   -0.17539E+00 46960   0.441E+00
DAV:   5    -0.511467841501E+02   -0.20735E-02   -0.20735E-02 46664   0.497E-01    0.247E+01
DAV:   6    -0.460995613487E+02    0.50472E+01   -0.23028E+01 47080   0.223E+01    0.148E+01
DAV:   7    -0.474238585902E+02   -0.13243E+01   -0.94223E-01 45504   0.380E+00    0.853E+00
DAV:   8    -0.483007030329E+02   -0.87684E+00   -0.54483E-01 46040   0.262E+00    0.336E+00
DAV:   9    -0.483784867881E+02   -0.77784E-01   -0.33195E-02 47656   0.682E-01    0.695E-01
DAV:  10    -0.484037174533E+02   -0.25231E-01   -0.11874E-02 47096   0.436E-01    0.321E-01
DAV:  11    -0.484064203838E+02   -0.27029E-02   -0.16786E-03 46232   0.162E-01    0.163E-01
DAV:  12    -0.484066108864E+02   -0.19050E-03   -0.32435E-04 47488   0.683E-02    0.548E-02
DAV:  13    -0.484066120312E+02   -0.11447E-05   -0.35786E-05 47504   0.211E-02    0.138E-02
DAV:  14    -0.484066005229E+02    0.11508E-04   -0.68303E-06 46864   0.981E-03    0.604E-03
DAV:  15    -0.484065973089E+02    0.32140E-05   -0.56617E-07 43176   0.286E-03    0.236E-03
DAV:  16    -0.484065963794E+02    0.92950E-06   -0.84991E-08 26584   0.114E-03    0.783E-04
DAV:  17    -0.484065967075E+02   -0.32810E-06   -0.16656E-08 25728   0.459E-04    0.606E-04
DAV:  18    -0.484065970263E+02   -0.31882E-06   -0.42809E-09 25104   0.242E-04    0.274E-04
DAV:  19    -0.484065970428E+02   -0.16484E-07   -0.10675E-09 24544   0.120E-04
   1 F= -.48406597E+02 E0= -.48406597E+02  d E =0.000000E+00  mag=     0.0000
