 vasp.6.3.0 20Jan22 (build Feb 10 2022 15:15:41) complex                        
  
 executed on             LinuxIFC date 2023.10.12  15:53:53
 running on    8 total cores
 distrk:  each k-point on    8 cores,    1 groups
 distr:  one band on NCORE=   1 cores,    8 groups


--------------------------------------------------------------------------------------------------------


 INCAR:
   ICHARG = 2
   EDIFF = 1E-7
   SIGMA = 0.2
   VOSKOWN = 1
   LCHARG = .FALSE.
   LWAVE = .FALSE.
   ISPIN = 2
   ENCUT = 350
   ISIF = 2
   ISMEAR = -5
   NSW = 1
   IBRION = -1
   PREC = High
   NEDOS = 2000
   NPAR = 8
   ENCUT = 350

 POTCAR:    PAW_PBE Ag 02Apr2005                  
 POTCAR:    PAW_PBE Al 04Jan2001                  
 -----------------------------------------------------------------------------
|                                                                             |
|           W    W    AA    RRRRR   N    N  II  N    N   GGGG   !!!           |
|           W    W   A  A   R    R  NN   N  II  NN   N  G    G  !!!           |
|           W    W  A    A  R    R  N N  N  II  N N  N  G       !!!           |
|           W WW W  AAAAAA  RRRRR   N  N N  II  N  N N  G  GGG   !            |
|           WW  WW  A    A  R   R   N   NN  II  N   NN  G    G                |
|           W    W  A    A  R    R  N    N  II  N    N   GGGG   !!!           |
|                                                                             |
|     You use a magnetic or noncollinear calculation, but did not specify     |
|     the initial magnetic moment with the MAGMOM tag. Note that a            |
|     default of 1 will be used for all atoms. This ferromagnetic setup       |
|     may break the symmetry of the crystal, in particular it may rule        |
|     out finding an antiferromagnetic solution. Thence, we recommend         |
|     setting the initial magnetic moment manually or verifying carefully     |
|     that this magnetic setup is desired.                                    |
|                                                                             |
 -----------------------------------------------------------------------------

 -----------------------------------------------------------------------------
|                                                                             |
|           W    W    AA    RRRRR   N    N  II  N    N   GGGG   !!!           |
|           W    W   A  A   R    R  NN   N  II  NN   N  G    G  !!!           |
|           W    W  A    A  R    R  N N  N  II  N N  N  G       !!!           |
|           W WW W  AAAAAA  RRRRR   N  N N  II  N  N N  G  GGG   !            |
|           WW  WW  A    A  R   R   N   NN  II  N   NN  G    G                |
|           W    W  A    A  R    R  N    N  II  N    N   GGGG   !!!           |
|                                                                             |
|     For optimal performance we recommend to set                             |
|       NCORE = 2 up to number-of-cores-per-socket                            |
|     NCORE specifies how many cores store one orbital (NPAR=cpu/NCORE).      |
|     This setting can greatly improve the performance of VASP for DFT.       |
|     The default, NCORE=1 might be grossly inefficient on modern             |
|     multi-core architectures or massively parallel machines. Do your        |
|     own testing! More info at https://www.vasp.at/wiki/index.php/NCORE      |
|     Unfortunately you need to use the default for GW and RPA                |
|     calculations (for HF NCORE is supported but not extensively tested      |
|     yet).                                                                   |
|                                                                             |
 -----------------------------------------------------------------------------

 POTCAR:    PAW_PBE Ag 02Apr2005                  
   VRHFIN =Ag : s1 d10                                                                              
   LEXCH  = PE                                                                                      
   EATOM  =  1037.2675 eV,   76.2370 Ry                                                             
                                                                                                    
   TITEL  = PAW_PBE Ag 02Apr2005                                                                    
   LULTRA =        F    use ultrasoft PP ?                                                          
   IUNSCR =        1    unscreen: 0-lin 1-nonlin 2-no                                               
   RPACOR =    2.000    partial core radius                                                         
   POMASS =  107.868; ZVAL   =   11.000    mass and valenz                                          
   RCORE  =    2.500    outmost cutoff radius                                                       
   RWIGS  =    2.840; RWIGS  =    1.503    wigner-seitz radius (au A)                               
   ENMAX  =  249.844; ENMIN  =  187.383 eV                                                          
   ICORE  =        3    local potential                                                             
   LCOR   =        T    correct aug charges                                                         
   LPAW   =        T    paw PP                                                                      
   EAUG   =  412.496                                                                                
   DEXC   =    0.000                                                                                
   RMAX   =    2.560    core radius for proj-oper                                                   
   RAUG   =    1.300    factor for augmentation sphere                                              
   RDEP   =    2.576    radius for radial grids                                                     
   RDEPT  =    2.072    core radius for aug-charge                                                  
                                                                                                    
   Atomic configuration                                                                             
   12 entries                                                                                       
     n  l   j            E        occ.                                                              
     1  0  0.50    -25324.9161   2.0000                                                             
     2  0  0.50     -3728.5341   2.0000                                                             
     2  1  1.50     -3344.0404   6.0000                                                             
     3  0  0.50      -683.5581   2.0000                                                             
     3  1  1.50      -557.3225   6.0000                                                             
     3  2  2.50      -358.3853  10.0000                                                             
     4  0  0.50       -95.0341   2.0000                                                             
     4  1  1.50       -58.5511   6.0000                                                             
     4  2  2.50        -7.4440  10.0000                                                             
     5  0  0.50        -4.4045   1.0000                                                             
     5  1  0.50        -1.3606   0.0000                                                             
     4  3  2.50        -1.3606   0.0000                                                             
   Description                                                                                      
     l       E           TYP  RCUT    TYP  RCUT                                                     
     2     -7.4439781     23  2.400                                                                 
     2     -8.8045607     23  2.400                                                                 
     0     -4.4044681     23  2.400                                                                 
     0      1.9520038     23  2.400                                                                 
     1     -1.3605826     23  2.500                                                                 
     1     27.2116520     23  2.500                                                                 
     3     -4.0817478     23  2.400                                                                 
  local pseudopotential read in
  partial core-charges read in
  partial kinetic energy density read in
  atomic valenz-charges read in
  non local Contribution for L=           2  read in
    real space projection operators read in
  non local Contribution for L=           2  read in
    real space projection operators read in
  non local Contribution for L=           0  read in
    real space projection operators read in
  non local Contribution for L=           0  read in
    real space projection operators read in
  non local Contribution for L=           1  read in
    real space projection operators read in
  non local Contribution for L=           1  read in
    real space projection operators read in
    PAW grid and wavefunctions read in
 
   number of l-projection  operators is LMAX  =           6
   number of lm-projection operators is LMMAX =          18
 
 POTCAR:    PAW_PBE Al 04Jan2001                  
   VRHFIN =Al: s2p1                                                                                 
   LEXCH  = PE                                                                                      
   EATOM  =    53.5387 eV,    3.9350 Ry                                                             
                                                                                                    
   TITEL  = PAW_PBE Al 04Jan2001                                                                    
   LULTRA =        F    use ultrasoft PP ?                                                          
   IUNSCR =        1    unscreen: 0-lin 1-nonlin 2-no                                               
   RPACOR =    1.500    partial core radius                                                         
   POMASS =   26.981; ZVAL   =    3.000    mass and valenz                                          
   RCORE  =    1.900    outmost cutoff radius                                                       
   RWIGS  =    2.650; RWIGS  =    1.402    wigner-seitz radius (au A)                               
   ENMAX  =  240.300; ENMIN  =  180.225 eV                                                          
   ICORE  =        2    local potential                                                             
   LCOR   =        T    correct aug charges                                                         
   LPAW   =        T    paw PP                                                                      
   EAUG   =  291.052                                                                                
   DEXC   =    0.000                                                                                
   RMAX   =    1.939    core radius for proj-oper                                                   
   RAUG   =    1.300    factor for augmentation sphere                                              
   RDEP   =    1.966    radius for radial grids                                                     
   RDEPT  =    1.856    core radius for aug-charge                                                  
                                                                                                    
   Atomic configuration                                                                             
    6 entries                                                                                       
     n  l   j            E        occ.                                                              
     1  0  0.50     -1511.1048   2.0000                                                             
     2  0  0.50      -108.1629   2.0000                                                             
     2  1  1.50       -69.6402   6.0000                                                             
     3  0  0.50        -7.7528   2.0000                                                             
     3  1  1.50        -2.7121   1.0000                                                             
     3  2  2.50        -2.7212   0.0000                                                             
   Description                                                                                      
     l       E           TYP  RCUT    TYP  RCUT                                                     
     0     -7.7528455     23  1.900                                                                 
     0     -3.3096929     23  1.900                                                                 
     1     -2.7120682     23  1.900                                                                 
     1     13.6058260     23  1.900                                                                 
     2     -2.7211652      7  1.900                                                                 
  local pseudopotential read in
  partial core-charges read in
  partial kinetic energy density read in
  atomic valenz-charges read in
  non local Contribution for L=           0  read in
    real space projection operators read in
  non local Contribution for L=           0  read in
    real space projection operators read in
  non local Contribution for L=           1  read in
    real space projection operators read in
  non local Contribution for L=           1  read in
    real space projection operators read in
    PAW grid and wavefunctions read in
 
   number of l-projection  operators is LMAX  =           4
   number of lm-projection operators is LMMAX =           8
 
  PAW_PBE Ag 02Apr2005                  :
 energy of atom  1       EATOM=-1037.2675
 kinetic energy error for atom=    0.0272 (will be added to EATOM!!)
  PAW_PBE Al 04Jan2001                  :
 energy of atom  2       EATOM=  -53.5387
 kinetic energy error for atom=    0.0006 (will be added to EATOM!!)
 
 
 POSCAR: hcpsqs16_25_75
  positions in direct lattice
  velocities in cartesian coordinates
 exchange correlation table for  LEXCH =        8
   RHO(1)=    0.500       N(1)  =     2000
   RHO(2)=  100.500       N(2)  =     4000
 


--------------------------------------------------------------------------------------------------------


 ion  position               nearest neighbor table
   1  0.985  0.008  0.246-  15 2.77   8 2.87   7 2.89   2 2.91   5 2.91   5 2.92   2 2.94   3 2.94
                             6 2.95   7 2.95   8 2.96   4 3.03
   2  0.489  0.509  0.116-  15 2.76  15 2.81  16 2.82   3 2.88  12 2.89   1 2.91   7 2.92   7 2.93
                             8 2.93   1 2.94   3 2.95   5 3.04
   3  0.573  0.916  0.050-  14 2.81  16 2.81  12 2.82  15 2.83  15 2.84   2 2.88   7 2.89  12 2.92
                             1 2.94   2 2.95   7 3.00   8 3.06
   4  0.992  0.004  0.505-  13 2.78   8 2.88  10 2.89  11 2.89  10 2.90   5 2.91   6 2.91   5 2.92
                             6 2.94  13 2.95   9 3.02   1 3.03
   5  0.494  0.513  0.377-  13 2.80   8 2.86   6 2.90   4 2.91   1 2.91   7 2.92   1 2.92   4 2.92
                             6 2.93  10 2.98   8 2.99   2 3.04
   6  0.101  0.402  0.442-  13 2.80  13 2.83  11 2.87   5 2.90   8 2.91   4 2.91   8 2.92   5 2.93
                             4 2.94   1 2.95  10 2.96   7 3.01
   7  0.092  0.404  0.185-  15 2.79   3 2.89   1 2.89   8 2.90   8 2.90   5 2.92   2 2.92   2 2.93
                             1 2.95  12 3.00   3 3.00   6 3.01
   8  0.595  0.904  0.313-  13 2.84   5 2.86   1 2.87   4 2.88   7 2.90   7 2.90   6 2.91   6 2.92
                             2 2.93   1 2.96   5 2.99   3 3.06
   9  0.990  0.994  0.762-  14 2.78  16 2.80  16 2.83  12 2.87  11 2.88  15 2.89  14 2.91  13 2.93
                            10 2.94  10 2.95   4 3.02  11 3.07
  10  0.509  0.519  0.634-  14 2.74  13 2.87  16 2.87   4 2.89  11 2.89  11 2.90   4 2.90   9 2.94
                             9 2.95   6 2.96   5 2.98  13 3.07
  11  0.111  0.400  0.689-  14 2.76  16 2.81  12 2.85   6 2.87   9 2.88  10 2.89   4 2.89  10 2.90
                            13 2.91  13 2.96  14 3.02   9 3.07
  12  0.065  0.434  0.929-  14 2.79   3 2.82  16 2.83  11 2.85   9 2.87  16 2.87  15 2.88   2 2.89
                            14 2.91   3 2.92   7 3.00  15 3.03
  13  0.598  0.903  0.555-   4 2.78   5 2.80   6 2.80   6 2.83   8 2.84  10 2.87  11 2.91   9 2.93
                             4 2.95  11 2.96  14 3.01  10 3.07
  14  0.575  0.921  0.811-  10 2.74  11 2.76   9 2.78  12 2.79   3 2.81  16 2.88  12 2.91   9 2.91
                            16 2.93  15 2.97  13 3.01  11 3.02
  15  0.994  0.006  0.010-   2 2.76   1 2.77   7 2.79   2 2.81   3 2.83   3 2.84  12 2.88   9 2.89
                            16 2.90  14 2.97  16 2.99  12 3.03
  16  0.501  0.496  0.876-   9 2.80  11 2.81   3 2.81   2 2.82  12 2.83   9 2.83  10 2.87  12 2.87
                            14 2.88  15 2.90  14 2.93  15 2.99
 
  LATTYP: Found a triclinic cell.
 ALAT       =     5.5637341999
 B/A-ratio  =     0.9930573405
 C/A-ratio  =     2.0765829972
 COS(alpha) =     0.0107400758
 COS(beta)  =     0.2129033774
 COS(gamma) =     0.5963770471
  
  Lattice vectors:
  
 A1 = (   2.9097625510,  -0.0164258592,  -4.7421672614)
 A2 = (  -1.3963520437,  -2.5210209089,  -4.7139646668)
 A3 = (  -2.9107013168,  10.1417979667,  -4.7070589972)


Analysis of symmetry for initial positions (statically):
=====================================================================
 Subroutine PRICEL returns:
 Original cell was already a primitive cell.
 

 Routine SETGRP: Setting up the symmetry group for a 
 triclinic supercell.


 Subroutine GETGRP returns: Found  1 space group operations
 (whereof  1 operations were pure point group operations)
 out of a pool of  2 trial point group operations.


The static configuration has the point symmetry C_1 .


Analysis of symmetry for dynamics (positions and initial velocities):
=====================================================================
 Subroutine PRICEL returns:
 Original cell was already a primitive cell.
 

 Routine SETGRP: Setting up the symmetry group for a 
 triclinic supercell.


 Subroutine GETGRP returns: Found  1 space group operations
 (whereof  1 operations were pure point group operations)
 out of a pool of  2 trial point group operations.


The dynamic configuration has the point symmetry C_1 .


Analysis of structural, dynamic, and magnetic symmetry:
=====================================================================
 Subroutine PRICEL returns:
 Original cell was already a primitive cell.
 

 Routine SETGRP: Setting up the symmetry group for a 
 triclinic supercell.


 Subroutine GETGRP returns: Found  1 space group operations
 (whereof  1 operations were pure point group operations)
 out of a pool of  2 trial point group operations.


The overall configuration has the point symmetry C_1 .


 Subroutine INISYM returns: Found  1 space group operations
 (whereof  1 operations are pure point group operations),
 and found     1 'primitive' translations


----------------------------------------------------------------------------------------

                                     Primitive cell                                     

  volume of cell :     275.4757

  direct lattice vectors                    reciprocal lattice vectors
     1.396352044  2.521020909  4.713964667     0.174866287  0.099825329  0.106951027
    -2.909762551  0.016425859  4.742167261    -0.173507110 -0.099778240  0.104756839
     5.820463868-10.158223826 -0.035108264     0.043116943 -0.073829560  0.026712002

  length of vectors
     5.525107088  5.563734200 11.707627579     0.227995256  0.225907967  0.089573466

  position of ions in fractional coordinates (direct lattice)
     0.985484507  0.008130686  0.246243701
     0.489475128  0.508904767  0.116130703
     0.572702884  0.915805152  0.049892979
     0.992455973  0.003783943  0.504975818
     0.493592299  0.513021825  0.377027041
     0.101162646  0.401960986  0.442448918
     0.092362165  0.404485178  0.184798681
     0.595321826  0.904289149  0.312515750
     0.989715778  0.994125939  0.761657096
     0.509090738  0.519191418  0.634395618
     0.111416798  0.400162951  0.688689903
     0.065147010  0.433789239  0.929410845
     0.598231814  0.902586527  0.554976446
     0.575050240  0.920601492  0.811066751
     0.994322127  0.006379293  0.010214125
     0.501134738  0.496114791  0.875555626

  ion indices of the primitive-cell ions
   primitive index   ion index
                 1           1
                 2           2
                 3           3
                 4           4
                 5           5
                 6           6
                 7           7
                 8           8
                 9           9
                10          10
                11          11
                12          12
                13          13
                14          14
                15          15
                16          16

----------------------------------------------------------------------------------------

 
 
 KPOINTS: pymatgen with grid density = 8000 / numb

Automatic generation of k-mesh.
 Grid dimensions read from file:
 generate k-points for:    6    6    6

 Generating k-lattice:

  Cartesian coordinates                     Fractional coordinates (reciprocal lattice)
     0.029144381  0.016637555  0.017825171     0.166666667 -0.000000000 -0.000000000
    -0.028917852 -0.016629707  0.017459473     0.000000000  0.166666667  0.000000000
     0.007186157 -0.012304927  0.004452000     0.000000000  0.000000000  0.166666667

  Length of vectors
     0.037999209  0.037651328  0.014928911

  Shift w.r.t. Gamma in fractional coordinates (k-lattice)
     0.000000000  0.000000000  0.000000000

 TETIRR: Found    648 inequivalent tetrahedra from     1296
 
 Subroutine IBZKPT returns following result:
 ===========================================
 
 Found    112 irreducible k-points:
 
 Following reciprocal coordinates:
            Coordinates               Weight
  0.000000  0.000000  0.000000      1.000000
  0.166667  0.000000  0.000000      2.000000
  0.333333 -0.000000 -0.000000      2.000000
  0.500000 -0.000000  0.000000      1.000000
 -0.000000  0.166667 -0.000000      2.000000
  0.166667  0.166667  0.000000      2.000000
  0.333333  0.166667 -0.000000      2.000000
  0.500000  0.166667  0.000000      2.000000
 -0.333333  0.166667  0.000000      2.000000
 -0.166667  0.166667 -0.000000      2.000000
 -0.000000  0.333333 -0.000000      2.000000
  0.166667  0.333333  0.000000      2.000000
  0.333333  0.333333 -0.000000      2.000000
  0.500000  0.333333  0.000000      2.000000
 -0.333333  0.333333  0.000000      2.000000
 -0.166667  0.333333 -0.000000      2.000000
  0.000000  0.500000 -0.000000      1.000000
  0.166667  0.500000  0.000000      2.000000
  0.333333  0.500000 -0.000000      2.000000
  0.500000  0.500000 -0.000000      1.000000
  0.000000 -0.000000  0.166667      2.000000
  0.166667  0.000000  0.166667      2.000000
  0.333333  0.000000  0.166667      2.000000
  0.500000 -0.000000  0.166667      2.000000
 -0.333333  0.000000  0.166667      2.000000
 -0.166667  0.000000  0.166667      2.000000
 -0.000000  0.166667  0.166667      2.000000
  0.166667  0.166667  0.166667      2.000000
  0.333333  0.166667  0.166667      2.000000
  0.500000  0.166667  0.166667      2.000000
 -0.333333  0.166667  0.166667      2.000000
 -0.166667  0.166667  0.166667      2.000000
  0.000000  0.333333  0.166667      2.000000
  0.166667  0.333333  0.166667      2.000000
  0.333333  0.333333  0.166667      2.000000
  0.500000  0.333333  0.166667      2.000000
 -0.333333  0.333333  0.166667      2.000000
 -0.166667  0.333333  0.166667      2.000000
 -0.000000  0.500000  0.166667      2.000000
  0.166667  0.500000  0.166667      2.000000
  0.333333  0.500000  0.166667      2.000000
  0.500000  0.500000  0.166667      2.000000
 -0.333333  0.500000  0.166667      2.000000
 -0.166667  0.500000  0.166667      2.000000
 -0.000000 -0.333333  0.166667      2.000000
  0.166667 -0.333333  0.166667      2.000000
  0.333333 -0.333333  0.166667      2.000000
  0.500000 -0.333333  0.166667      2.000000
 -0.333333 -0.333333  0.166667      2.000000
 -0.166667 -0.333333  0.166667      2.000000
  0.000000 -0.166667  0.166667      2.000000
  0.166667 -0.166667  0.166667      2.000000
  0.333333 -0.166667  0.166667      2.000000
  0.500000 -0.166667  0.166667      2.000000
 -0.333333 -0.166667  0.166667      2.000000
 -0.166667 -0.166667  0.166667      2.000000
 -0.000000 -0.000000  0.333333      2.000000
  0.166667 -0.000000  0.333333      2.000000
  0.333333  0.000000  0.333333      2.000000
  0.500000 -0.000000  0.333333      2.000000
 -0.333333 -0.000000  0.333333      2.000000
 -0.166667 -0.000000  0.333333      2.000000
 -0.000000  0.166667  0.333333      2.000000
  0.166667  0.166667  0.333333      2.000000
  0.333333  0.166667  0.333333      2.000000
  0.500000  0.166667  0.333333      2.000000
 -0.333333  0.166667  0.333333      2.000000
 -0.166667  0.166667  0.333333      2.000000
  0.000000  0.333333  0.333333      2.000000
  0.166667  0.333333  0.333333      2.000000
  0.333333  0.333333  0.333333      2.000000
  0.500000  0.333333  0.333333      2.000000
 -0.333333  0.333333  0.333333      2.000000
 -0.166667  0.333333  0.333333      2.000000
 -0.000000  0.500000  0.333333      2.000000
  0.166667  0.500000  0.333333      2.000000
  0.333333  0.500000  0.333333      2.000000
  0.500000  0.500000  0.333333      2.000000
 -0.333333  0.500000  0.333333      2.000000
 -0.166667  0.500000  0.333333      2.000000
 -0.000000 -0.333333  0.333333      2.000000
  0.166667 -0.333333  0.333333      2.000000
  0.333333 -0.333333  0.333333      2.000000
  0.500000 -0.333333  0.333333      2.000000
 -0.333333 -0.333333  0.333333      2.000000
 -0.166667 -0.333333  0.333333      2.000000
  0.000000 -0.166667  0.333333      2.000000
  0.166667 -0.166667  0.333333      2.000000
  0.333333 -0.166667  0.333333      2.000000
  0.500000 -0.166667  0.333333      2.000000
 -0.333333 -0.166667  0.333333      2.000000
 -0.166667 -0.166667  0.333333      2.000000
 -0.000000 -0.000000  0.500000      1.000000
  0.166667 -0.000000  0.500000      2.000000
  0.333333 -0.000000  0.500000      2.000000
  0.500000 -0.000000  0.500000      1.000000
 -0.000000  0.166667  0.500000      2.000000
  0.166667  0.166667  0.500000      2.000000
  0.333333  0.166667  0.500000      2.000000
  0.500000  0.166667  0.500000      2.000000
 -0.333333  0.166667  0.500000      2.000000
 -0.166667  0.166667  0.500000      2.000000
  0.000000  0.333333  0.500000      2.000000
  0.166667  0.333333  0.500000      2.000000
  0.333333  0.333333  0.500000      2.000000
  0.500000  0.333333  0.500000      2.000000
 -0.333333  0.333333  0.500000      2.000000
 -0.166667  0.333333  0.500000      2.000000
  0.000000  0.500000  0.500000      1.000000
  0.166667  0.500000  0.500000      2.000000
  0.333333  0.500000  0.500000      2.000000
  0.500000  0.500000  0.500000      1.000000
 
 Following cartesian coordinates:
            Coordinates               Weight
  0.000000  0.000000  0.000000      1.000000
  0.029144  0.016638  0.017825      2.000000
  0.058289  0.033275  0.035650      2.000000
  0.087433  0.049913  0.053476      1.000000
 -0.028918 -0.016630  0.017459      2.000000
  0.000227  0.000008  0.035285      2.000000
  0.029371  0.016645  0.053110      2.000000
  0.058515  0.033283  0.070935      2.000000
 -0.087207 -0.049905 -0.018191      2.000000
 -0.058062 -0.033267 -0.000366      2.000000
 -0.057836 -0.033259  0.034919      2.000000
 -0.028691 -0.016622  0.052744      2.000000
  0.000453  0.000016  0.070569      2.000000
  0.029597  0.016653  0.088394      2.000000
 -0.116124 -0.066535 -0.000731      2.000000
 -0.086980 -0.049897  0.017094      2.000000
 -0.086754 -0.049889  0.052378      1.000000
 -0.057609 -0.033252  0.070204      2.000000
 -0.028465 -0.016614  0.088029      2.000000
  0.000680  0.000024  0.105854      1.000000
  0.007186 -0.012305  0.004452      2.000000
  0.036331  0.004333  0.022277      2.000000
  0.065475  0.020970  0.040102      2.000000
  0.094619  0.037608  0.057928      2.000000
 -0.051103 -0.045580 -0.031198      2.000000
 -0.021958 -0.028942 -0.013373      2.000000
 -0.021732 -0.028935  0.021911      2.000000
  0.007413 -0.012297  0.039737      2.000000
  0.036557  0.004340  0.057562      2.000000
  0.065701  0.020978  0.075387      2.000000
 -0.080020 -0.062210 -0.013739      2.000000
 -0.050876 -0.045572  0.004086      2.000000
 -0.050650 -0.045564  0.039371      2.000000
 -0.021505 -0.028927  0.057196      2.000000
  0.007639 -0.012289  0.075021      2.000000
  0.036784  0.004348  0.092846      2.000000
 -0.108938 -0.078839  0.003721      2.000000
 -0.079794 -0.062202  0.021546      2.000000
 -0.079567 -0.062194  0.056830      2.000000
 -0.050423 -0.045556  0.074656      2.000000
 -0.021279 -0.028919  0.092481      2.000000
  0.007866 -0.012281  0.110306      2.000000
 -0.137856 -0.095469  0.021180      2.000000
 -0.108712 -0.078832  0.039005      2.000000
  0.065022  0.020954 -0.030467      2.000000
  0.094166  0.037592 -0.012642      2.000000
  0.123311  0.054230  0.005183      2.000000
  0.152455  0.070867  0.023009      2.000000
  0.006733 -0.012321 -0.066117      2.000000
  0.035877  0.004317 -0.048292      2.000000
  0.036104  0.004325 -0.013007      2.000000
  0.065248  0.020962  0.004818      2.000000
  0.094393  0.037600  0.022643      2.000000
  0.123537  0.054237  0.040468      2.000000
 -0.022185 -0.028950 -0.048658      2.000000
  0.006960 -0.012313 -0.030833      2.000000
  0.014372 -0.024610  0.008904      2.000000
  0.043517 -0.007972  0.026729      2.000000
  0.072661  0.008665  0.044554      2.000000
  0.101805  0.025303  0.062380      2.000000
 -0.043916 -0.057885 -0.026746      2.000000
 -0.014772 -0.041247 -0.008921      2.000000
 -0.014546 -0.041240  0.026363      2.000000
  0.014599 -0.024602  0.044189      2.000000
  0.043743 -0.007964  0.062014      2.000000
  0.072888  0.008673  0.079839      2.000000
 -0.072834 -0.074515 -0.009287      2.000000
 -0.043690 -0.057877  0.008538      2.000000
 -0.043463 -0.057869  0.043823      2.000000
 -0.014319 -0.041232  0.061648      2.000000
  0.014825 -0.024594  0.079473      2.000000
  0.043970 -0.007957  0.097298      2.000000
 -0.101752 -0.091144  0.008173      2.000000
 -0.072608 -0.074507  0.025998      2.000000
 -0.072381 -0.074499  0.061282      2.000000
 -0.043237 -0.057861  0.079108      2.000000
 -0.014092 -0.041224  0.096933      2.000000
  0.015052 -0.024586  0.114758      2.000000
 -0.130670 -0.107774  0.025632      2.000000
 -0.101526 -0.091137  0.043457      2.000000
  0.072208  0.008650 -0.026015      2.000000
  0.101352  0.025287 -0.008190      2.000000
  0.130497  0.041925  0.009635      2.000000
  0.159641  0.058562  0.027461      2.000000
  0.013919 -0.024626 -0.061665      2.000000
  0.043064 -0.007988 -0.043840      2.000000
  0.043290 -0.007980 -0.008555      2.000000
  0.072435  0.008657  0.009270      2.000000
  0.101579  0.025295  0.027095      2.000000
  0.130723  0.041933  0.044920      2.000000
 -0.014999 -0.041255 -0.044206      2.000000
  0.014146 -0.024618 -0.026381      2.000000
  0.021558 -0.036915  0.013356      1.000000
  0.050703 -0.020277  0.031181      2.000000
  0.079847 -0.003640  0.049006      2.000000
  0.108992  0.012998  0.066832      1.000000
 -0.007359 -0.053544  0.030815      2.000000
  0.021785 -0.036907  0.048641      2.000000
  0.050929 -0.020269  0.066466      2.000000
  0.080074 -0.003632  0.084291      2.000000
 -0.065648 -0.086820 -0.004835      2.000000
 -0.036504 -0.070182  0.012990      2.000000
 -0.036277 -0.070174  0.048275      2.000000
 -0.007133 -0.053537  0.066100      2.000000
  0.022012 -0.036899  0.083925      2.000000
  0.051156 -0.020262  0.101750      2.000000
 -0.094566 -0.103449  0.012625      2.000000
 -0.065422 -0.086812  0.030450      2.000000
 -0.065195 -0.086804  0.065734      1.000000
 -0.036051 -0.070166  0.083560      2.000000
 -0.006906 -0.053529  0.101385      2.000000
  0.022238 -0.036891  0.119210      1.000000
 


--------------------------------------------------------------------------------------------------------




 Dimension of arrays:
   k-points           NKPTS =    112   k-points in BZ     NKDIM =    112   number of bands    NBANDS=     96
   number of dos      NEDOS =   2000   number of ions     NIONS =     16
   non local maximal  LDIM  =      6   non local SUM 2l+1 LMDIM =     18
   total plane-waves  NPLWV =  93312
   max r-space proj   IRMAX =      1   max aug-charges    IRDMAX=   5982
   dimension x,y,z NGX =    36 NGY =   36 NGZ =   72
   dimension x,y,z NGXF=    48 NGYF=   50 NGZF=  108
   support grid    NGXF=    48 NGYF=   50 NGZF=  108
   ions per type =              12   4
   NGX,Y,Z   is equivalent  to a cutoff of  10.83, 10.76, 10.22 a.u.
   NGXF,Y,Z  is equivalent  to a cutoff of  14.44, 14.94, 15.34 a.u.

 SYSTEM =  unknown system                          
 POSCAR =  hcpsqs16_25_75                          

 Startparameter for this run:
   NWRITE =      2    write-flag & timer
   PREC   = high      normal or accurate (medium, high low for compatibility)
   ISTART =      0    job   : 0-new  1-cont  2-samecut
   ICHARG =      2    charge: 1-file 2-atom 10-const
   ISPIN  =      2    spin polarized calculation?
   LNONCOLLINEAR =      F non collinear calculations
   LSORBIT =      F    spin-orbit coupling
   INIWAV =      1    electr: 0-lowe 1-rand  2-diag
   LASPH  =      F    aspherical Exc in radial PAW
 Electronic Relaxation 1
   ENCUT  =  350.0 eV  25.72 Ry    5.07 a.u.   8.43  8.49 17.86*2*pi/ulx,y,z
   ENINI  =  350.0     initial cutoff
   ENAUG  =  412.5 eV  augmentation charge cutoff
   NELM   =     60;   NELMIN=  2; NELMDL= -5     # of ELM steps 
   EDIFF  = 0.1E-06   stopping-criterion for ELM
   LREAL  =      F    real-space projection
   NLSPLINE    = F    spline interpolate recip. space projectors
   LCOMPAT=      F    compatible to vasp.4.4
   GGA_COMPAT  = T    GGA compatible to vasp.4.4-vasp.4.6
   LMAXPAW     = -100 max onsite density
   LMAXMIX     =    2 max onsite mixed and CHGCAR
   VOSKOWN=      1    Vosko Wilk Nusair interpolation
   ROPT   =    0.00000   0.00000
 Ionic relaxation
   EDIFFG = 0.1E-05   stopping-criterion for IOM
   NSW    =      1    number of steps for IOM
   NBLOCK =      1;   KBLOCK =      1    inner block; outer block 
   IBRION =     -1    ionic relax: 0-MD 1-quasi-New 2-CG
   NFREE  =      0    steps in history (QN), initial steepest desc. (CG)
   ISIF   =      2    stress and relaxation
   IWAVPR =     10    prediction:  0-non 1-charg 2-wave 3-comb
   ISYM   =      2    0-nonsym 1-usesym 2-fastsym
   LCORR  =      T    Harris-Foulkes like correction to forces

   POTIM  = 0.5000    time-step for ionic-motion
   TEIN   =    0.0    initial temperature
   TEBEG  =    0.0;   TEEND  =   0.0 temperature during run
   SMASS  =  -3.00    Nose mass-parameter (am)
   estimated Nose-frequenzy (Omega)   =  0.10E-29 period in steps = 0.13E+47 mass=  -0.698E-27a.u.
   SCALEE = 1.0000    scale energy and forces
   NPACO  =    256;   APACO  = 10.0  distance and # of slots for P.C.
   PSTRESS=    0.0 pullay stress

  Mass of Ions in am
   POMASS = 107.87 26.98
  Ionic Valenz
   ZVAL   =  11.00  3.00
  Atomic Wigner-Seitz radii
   RWIGS  =  -1.00 -1.00
  virtual crystal weights 
   VCA    =   1.00  1.00
   NELECT =     144.0000    total number of electrons
   NUPDOWN=      -1.0000    fix difference up-down

 DOS related values:
   EMIN   =  10.00;   EMAX   =-10.00  energy-range for DOS
   EFERMI =   0.00
   ISMEAR =    -5;   SIGMA  =   0.20  broadening in eV -4-tet -1-fermi 0-gaus

 Electronic relaxation 2 (details)
   IALGO  =     38    algorithm
   LDIAG  =      T    sub-space diagonalisation (order eigenvalues)
   LSUBROT=      F    optimize rotation matrix (better conditioning)
   TURBO    =      0    0=normal 1=particle mesh
   IRESTART =      0    0=no restart 2=restart with 2 vectors
   NREBOOT  =      0    no. of reboots
   NMIN     =      0    reboot dimension
   EREF     =   0.00    reference energy to select bands
   IMIX   =      4    mixing-type and parameters
     AMIX     =   0.40;   BMIX     =  1.00
     AMIX_MAG =   1.60;   BMIX_MAG =  1.00
     AMIN     =   0.10
     WC   =   100.;   INIMIX=   1;  MIXPRE=   1;  MAXMIX= -45

 Intra band minimization:
   WEIMIN = 0.0000     energy-eigenvalue tresh-hold
   EBREAK =  0.26E-09  absolut break condition
   DEPER  =   0.30     relativ break condition  

   TIME   =   0.40     timestep for ELM

  volume/ion in A,a.u.               =      17.22       116.19
  Fermi-wavevector in a.u.,A,eV,Ry     =   1.318766  2.492107 23.662502  1.739145
  Thomas-Fermi vector in A             =   2.448713
 
 Write flags
   LWAVE        =      F    write WAVECAR
   LDOWNSAMPLE  =      F    k-point downsampling of WAVECAR
   LCHARG       =      F    write CHGCAR
   LVTOT        =      F    write LOCPOT, total local potential
   LVHAR        =      F    write LOCPOT, Hartree potential only
   LELF         =      F    write electronic localiz. function (ELF)
   LORBIT       =      0    0 simple, 1 ext, 2 COOP (PROOUT), +10 PAW based schemes


 Dipole corrections
   LMONO  =      F    monopole corrections only (constant potential shift)
   LDIPOL =      F    correct potential (dipole corrections)
   IDIPOL =      0    1-x, 2-y, 3-z, 4-all directions 
   EPSILON=  1.0000000 bulk dielectric constant

 Exchange correlation treatment:
   GGA     =    --    GGA type
   LEXCH   =     8    internal setting for exchange type
   LIBXC   =     F    Libxc                    
   VOSKOWN =     1    Vosko Wilk Nusair interpolation
   LHFCALC =     F    Hartree Fock is set to
   LHFONE  =     F    Hartree Fock one center treatment
   AEXX    =    0.0000 exact exchange contribution

 Linear response parameters
   LEPSILON=     F    determine dielectric tensor
   LRPA    =     F    only Hartree local field effects (RPA)
   LNABLA  =     F    use nabla operator in PAW spheres
   LVEL    =     F    velocity operator in full k-point grid
   CSHIFT  =0.1000    complex shift for real part using Kramers Kronig
   OMEGAMAX=  -1.0    maximum frequency
   DEG_THRESHOLD= 0.2000000E-02 threshold for treating states as degnerate
   RTIME   =   -0.100 relaxation time in fs
  (WPLASMAI=    0.000 imaginary part of plasma frequency in eV, 0.658/RTIME)
   DFIELD  = 0.0000000 0.0000000 0.0000000 field for delta impulse in time
 
  Optional k-point grid parameters
   LKPOINTS_OPT  =     F    use optional k-point grid
   KPOINTS_OPT_MODE=     1    mode for optional k-point grid
 
 Orbital magnetization related:
   ORBITALMAG=     F  switch on orbital magnetization
   LCHIMAG   =     F  perturbation theory with respect to B field
   DQ        =  0.001000  dq finite difference perturbation B field
   LLRAUG    =     F  two centre corrections for induced B field



--------------------------------------------------------------------------------------------------------


 Static calculation
 charge density and potential will be updated during run
 spin polarized calculation
 Variant of blocked Davidson
 Davidson routine will perform the subspace rotation
 perform sub-space diagonalisation
    after iterative eigenvector-optimisation
 modified Broyden-mixing scheme, WC =      100.0
 initial mixing is a Kerker type mixing with AMIX =  0.4000 and BMIX =      1.0000
 Hartree-type preconditioning will be used
 using additional bands           24
 reciprocal scheme for non local part
 use partial core corrections
 calculate Harris-corrections to forces 
   (improved forces if not selfconsistent)
 use gradient corrections 
 use of overlap-Matrix (Vanderbilt PP)
 Fermi weights with tetrahedron method with Bloechl corrections


--------------------------------------------------------------------------------------------------------


  energy-cutoff  :      350.00
  volume of cell :      275.48
      direct lattice vectors                 reciprocal lattice vectors
     1.396352044  2.521020909  4.713964667     0.174866287  0.099825329  0.106951027
    -2.909762551  0.016425859  4.742167261    -0.173507110 -0.099778240  0.104756839
     5.820463868-10.158223826 -0.035108264     0.043116943 -0.073829560  0.026712002

  length of vectors
     5.525107088  5.563734200 11.707627579     0.227995256  0.225907967  0.089573466


 
 k-points in units of 2pi/SCALE and weight: pymatgen with grid density = 8000 / numb
   0.00000000  0.00000000  0.00000000       0.005
   0.02914438  0.01663755  0.01782517       0.009
   0.05828876  0.03327511  0.03565034       0.009
   0.08743314  0.04991266  0.05347551       0.005
  -0.02891785 -0.01662971  0.01745947       0.009
   0.00022653  0.00000785  0.03528464       0.009
   0.02937091  0.01664540  0.05310982       0.009
   0.05851529  0.03328296  0.07093499       0.009
  -0.08720661 -0.04990482 -0.01819087       0.009
  -0.05806223 -0.03326726 -0.00036570       0.009
  -0.05783570 -0.03325941  0.03491895       0.009
  -0.02869132 -0.01662186  0.05274412       0.009
   0.00045306  0.00001570  0.07056929       0.009
   0.02959744  0.01665325  0.08839446       0.009
  -0.11612447 -0.06653452 -0.00073140       0.009
  -0.08698008 -0.04989697  0.01709378       0.009
  -0.08675356 -0.04988912  0.05237842       0.005
  -0.05760917 -0.03325157  0.07020359       0.009
  -0.02846479 -0.01661401  0.08802876       0.009
   0.00067959  0.00002354  0.10585393       0.005
   0.00718616 -0.01230493  0.00445200       0.009
   0.03633054  0.00433263  0.02227717       0.009
   0.06547492  0.02097018  0.04010234       0.009
   0.09461930  0.03760774  0.05792751       0.009
  -0.05110261 -0.04558004 -0.03119834       0.009
  -0.02195822 -0.02894248 -0.01337317       0.009
  -0.02173169 -0.02893463  0.02191147       0.009
   0.00741269 -0.01229708  0.03973664       0.009
   0.03655707  0.00434048  0.05756182       0.009
   0.06570145  0.02097803  0.07538699       0.009
  -0.08002046 -0.06220974 -0.01373887       0.009
  -0.05087608 -0.04557219  0.00408630       0.009
  -0.05064955 -0.04556434  0.03937095       0.009
  -0.02150516 -0.02892679  0.05719612       0.009
   0.00763922 -0.01228923  0.07502129       0.009
   0.03678360  0.00434832  0.09284646       0.009
  -0.10893831 -0.07883945  0.00372060       0.009
  -0.07979393 -0.06220190  0.02154578       0.009
  -0.07956740 -0.06219405  0.05683042       0.009
  -0.05042302 -0.04555649  0.07465559       0.009
  -0.02127864 -0.02891894  0.09248076       0.009
   0.00786575 -0.01228138  0.11030593       0.009
  -0.13785616 -0.09546916  0.02118008       0.009
  -0.10871178 -0.07883160  0.03900525       0.009
   0.06502186  0.02095449 -0.03046695       0.009
   0.09416624  0.03759204 -0.01264177       0.009
   0.12331062  0.05422960  0.00518340       0.009
   0.15245500  0.07086715  0.02300857       0.009
   0.00673310 -0.01232062 -0.06611729       0.009
   0.03587748  0.00431693 -0.04829212       0.009
   0.03610401  0.00432478 -0.01300747       0.009
   0.06524839  0.02096233  0.00481770       0.009
   0.09439277  0.03759989  0.02264287       0.009
   0.12353715  0.05423744  0.04046804       0.009
  -0.02218475 -0.02895033 -0.04865781       0.009
   0.00695963 -0.01231277 -0.03083264       0.009
   0.01437231 -0.02460985  0.00890400       0.009
   0.04351670 -0.00797230  0.02672917       0.009
   0.07266108  0.00866526  0.04455434       0.009
   0.10180546  0.02530281  0.06237951       0.009
  -0.04391645 -0.05788496 -0.02674634       0.009
  -0.01477207 -0.04124741 -0.00892117       0.009
  -0.01454554 -0.04123956  0.02636347       0.009
   0.01459884 -0.02460201  0.04418864       0.009
   0.04374323 -0.00796445  0.06201382       0.009
   0.07288761  0.00867310  0.07983899       0.009
  -0.07283430 -0.07451467 -0.00928687       0.009
  -0.04368992 -0.05787712  0.00853830       0.009
  -0.04346339 -0.05786927  0.04382295       0.009
  -0.01431901 -0.04123171  0.06164812       0.009
   0.01482537 -0.02459416  0.07947329       0.009
   0.04396975 -0.00795660  0.09729846       0.009
  -0.10175215 -0.09114438  0.00817260       0.009
  -0.07260777 -0.07450682  0.02599778       0.009
  -0.07238124 -0.07449897  0.06128242       0.009
  -0.04323686 -0.05786142  0.07910759       0.009
  -0.01409248 -0.04122386  0.09693276       0.009
   0.01505190 -0.02458631  0.11475793       0.009
  -0.13067000 -0.10777408  0.02563208       0.009
  -0.10152562 -0.09113653  0.04345725       0.009
   0.07220802  0.00864956 -0.02601495       0.009
   0.10135240  0.02528711 -0.00818977       0.009
   0.13049678  0.04192467  0.00963540       0.009
   0.15964116  0.05856222  0.02746057       0.009
   0.01391926 -0.02462555 -0.06166529       0.009
   0.04306364 -0.00798800 -0.04384012       0.009
   0.04329017 -0.00798015 -0.00855547       0.009
   0.07243455  0.00865741  0.00926970       0.009
   0.10157893  0.02529496  0.02709487       0.009
   0.13072331  0.04193252  0.04492004       0.009
  -0.01499860 -0.04125526 -0.04420581       0.009
   0.01414579 -0.02461770 -0.02638064       0.009
   0.02155847 -0.03691478  0.01335600       0.005
   0.05070285 -0.02027723  0.03118117       0.009
   0.07984723 -0.00363967  0.04900634       0.009
   0.10899162  0.01299788  0.06683151       0.005
  -0.00735938 -0.05354449  0.03081547       0.009
   0.02178500 -0.03690693  0.04864065       0.009
   0.05092938 -0.02026938  0.06646582       0.009
   0.08007376 -0.00363182  0.08429099       0.009
  -0.06564814 -0.08681960 -0.00483487       0.009
  -0.03650376 -0.07018204  0.01299030       0.009
  -0.03627723 -0.07017419  0.04827495       0.009
  -0.00713285 -0.05353664  0.06610012       0.009
   0.02201153 -0.03689908  0.08392529       0.009
   0.05115591 -0.02026153  0.10175046       0.009
  -0.09456599 -0.10344930  0.01262461       0.009
  -0.06542161 -0.08681175  0.03044978       0.009
  -0.06519508 -0.08680390  0.06573442       0.005
  -0.03605070 -0.07016635  0.08355959       0.009
  -0.00690632 -0.05352879  0.10138476       0.009
   0.02223806 -0.03689124  0.11920993       0.005
 
 k-points in reciprocal lattice and weights: pymatgen with grid density = 8000 / numb
   0.00000000  0.00000000  0.00000000       0.005
   0.16666667  0.00000000  0.00000000       0.009
   0.33333333 -0.00000000 -0.00000000       0.009
   0.50000000 -0.00000000  0.00000000       0.005
  -0.00000000  0.16666667 -0.00000000       0.009
   0.16666667  0.16666667  0.00000000       0.009
   0.33333333  0.16666667 -0.00000000       0.009
   0.50000000  0.16666667  0.00000000       0.009
  -0.33333333  0.16666667  0.00000000       0.009
  -0.16666667  0.16666667 -0.00000000       0.009
  -0.00000000  0.33333333 -0.00000000       0.009
   0.16666667  0.33333333  0.00000000       0.009
   0.33333333  0.33333333 -0.00000000       0.009
   0.50000000  0.33333333  0.00000000       0.009
  -0.33333333  0.33333333  0.00000000       0.009
  -0.16666667  0.33333333 -0.00000000       0.009
   0.00000000  0.50000000 -0.00000000       0.005
   0.16666667  0.50000000  0.00000000       0.009
   0.33333333  0.50000000 -0.00000000       0.009
   0.50000000  0.50000000 -0.00000000       0.005
   0.00000000 -0.00000000  0.16666667       0.009
   0.16666667  0.00000000  0.16666667       0.009
   0.33333333  0.00000000  0.16666667       0.009
   0.50000000 -0.00000000  0.16666667       0.009
  -0.33333333  0.00000000  0.16666667       0.009
  -0.16666667  0.00000000  0.16666667       0.009
  -0.00000000  0.16666667  0.16666667       0.009
   0.16666667  0.16666667  0.16666667       0.009
   0.33333333  0.16666667  0.16666667       0.009
   0.50000000  0.16666667  0.16666667       0.009
  -0.33333333  0.16666667  0.16666667       0.009
  -0.16666667  0.16666667  0.16666667       0.009
   0.00000000  0.33333333  0.16666667       0.009
   0.16666667  0.33333333  0.16666667       0.009
   0.33333333  0.33333333  0.16666667       0.009
   0.50000000  0.33333333  0.16666667       0.009
  -0.33333333  0.33333333  0.16666667       0.009
  -0.16666667  0.33333333  0.16666667       0.009
  -0.00000000  0.50000000  0.16666667       0.009
   0.16666667  0.50000000  0.16666667       0.009
   0.33333333  0.50000000  0.16666667       0.009
   0.50000000  0.50000000  0.16666667       0.009
  -0.33333333  0.50000000  0.16666667       0.009
  -0.16666667  0.50000000  0.16666667       0.009
  -0.00000000 -0.33333333  0.16666667       0.009
   0.16666667 -0.33333333  0.16666667       0.009
   0.33333333 -0.33333333  0.16666667       0.009
   0.50000000 -0.33333333  0.16666667       0.009
  -0.33333333 -0.33333333  0.16666667       0.009
  -0.16666667 -0.33333333  0.16666667       0.009
   0.00000000 -0.16666667  0.16666667       0.009
   0.16666667 -0.16666667  0.16666667       0.009
   0.33333333 -0.16666667  0.16666667       0.009
   0.50000000 -0.16666667  0.16666667       0.009
  -0.33333333 -0.16666667  0.16666667       0.009
  -0.16666667 -0.16666667  0.16666667       0.009
  -0.00000000 -0.00000000  0.33333333       0.009
   0.16666667 -0.00000000  0.33333333       0.009
   0.33333333  0.00000000  0.33333333       0.009
   0.50000000 -0.00000000  0.33333333       0.009
  -0.33333333 -0.00000000  0.33333333       0.009
  -0.16666667 -0.00000000  0.33333333       0.009
  -0.00000000  0.16666667  0.33333333       0.009
   0.16666667  0.16666667  0.33333333       0.009
   0.33333333  0.16666667  0.33333333       0.009
   0.50000000  0.16666667  0.33333333       0.009
  -0.33333333  0.16666667  0.33333333       0.009
  -0.16666667  0.16666667  0.33333333       0.009
   0.00000000  0.33333333  0.33333333       0.009
   0.16666667  0.33333333  0.33333333       0.009
   0.33333333  0.33333333  0.33333333       0.009
   0.50000000  0.33333333  0.33333333       0.009
  -0.33333333  0.33333333  0.33333333       0.009
  -0.16666667  0.33333333  0.33333333       0.009
  -0.00000000  0.50000000  0.33333333       0.009
   0.16666667  0.50000000  0.33333333       0.009
   0.33333333  0.50000000  0.33333333       0.009
   0.50000000  0.50000000  0.33333333       0.009
  -0.33333333  0.50000000  0.33333333       0.009
  -0.16666667  0.50000000  0.33333333       0.009
  -0.00000000 -0.33333333  0.33333333       0.009
   0.16666667 -0.33333333  0.33333333       0.009
   0.33333333 -0.33333333  0.33333333       0.009
   0.50000000 -0.33333333  0.33333333       0.009
  -0.33333333 -0.33333333  0.33333333       0.009
  -0.16666667 -0.33333333  0.33333333       0.009
   0.00000000 -0.16666667  0.33333333       0.009
   0.16666667 -0.16666667  0.33333333       0.009
   0.33333333 -0.16666667  0.33333333       0.009
   0.50000000 -0.16666667  0.33333333       0.009
  -0.33333333 -0.16666667  0.33333333       0.009
  -0.16666667 -0.16666667  0.33333333       0.009
  -0.00000000 -0.00000000  0.50000000       0.005
   0.16666667 -0.00000000  0.50000000       0.009
   0.33333333 -0.00000000  0.50000000       0.009
   0.50000000 -0.00000000  0.50000000       0.005
  -0.00000000  0.16666667  0.50000000       0.009
   0.16666667  0.16666667  0.50000000       0.009
   0.33333333  0.16666667  0.50000000       0.009
   0.50000000  0.16666667  0.50000000       0.009
  -0.33333333  0.16666667  0.50000000       0.009
  -0.16666667  0.16666667  0.50000000       0.009
   0.00000000  0.33333333  0.50000000       0.009
   0.16666667  0.33333333  0.50000000       0.009
   0.33333333  0.33333333  0.50000000       0.009
   0.50000000  0.33333333  0.50000000       0.009
  -0.33333333  0.33333333  0.50000000       0.009
  -0.16666667  0.33333333  0.50000000       0.009
   0.00000000  0.50000000  0.50000000       0.005
   0.16666667  0.50000000  0.50000000       0.009
   0.33333333  0.50000000  0.50000000       0.009
   0.50000000  0.50000000  0.50000000       0.005
 
 position of ions in fractional coordinates (direct lattice) 
   0.98548451  0.00813069  0.24624370
   0.48947513  0.50890477  0.11613070
   0.57270288  0.91580515  0.04989298
   0.99245597  0.00378394  0.50497582
   0.49359230  0.51302182  0.37702704
   0.10116265  0.40196099  0.44244892
   0.09236216  0.40448518  0.18479868
   0.59532183  0.90428915  0.31251575
   0.98971578  0.99412594  0.76165710
   0.50909074  0.51919142  0.63439562
   0.11141680  0.40016295  0.68868990
   0.06514701  0.43378924  0.92941084
   0.59823181  0.90258653  0.55497645
   0.57505024  0.92060149  0.81106675
   0.99432213  0.00637929  0.01021412
   0.50113474  0.49611479  0.87555563
 
 position of ions in cartesian coordinates  (Angst):
   2.78567750 -0.01683803  4.67545103
  -0.12137787  0.06265455  4.71660283
  -1.57468041  0.95201478  7.04085071
   4.31400105 -2.62759297  4.67861766
   1.39092919 -2.57714174  4.74637519
   1.54690558 -4.23285944  2.36750975
   0.02762832 -1.63773540  2.34704039
   0.01899878 -1.65893244  7.08364456
   2.92251883 -5.22565972  9.35305623
   2.89262292 -5.15237612  4.83965576
   2.99969260 -6.70840909  2.39867579
   4.23834672 -9.26980105  2.33157183
   1.43925009 -4.11459429  7.08077565
   2.84502555 -6.77416224  7.04793762
   1.42931245  2.40305429  4.71709245
   4.35232416 -7.62256976  4.68425153
 


--------------------------------------------------------------------------------------------------------


 k-point   1 :   0.0000 0.0000 0.0000  plane waves:    4131
 k-point   2 :   0.1667 0.0000 0.0000  plane waves:    4105
 k-point   3 :   0.3333-0.0000-0.0000  plane waves:    4089
 k-point   4 :   0.5000-0.0000 0.0000  plane waves:    4090
 k-point   5 :  -0.0000 0.1667-0.0000  plane waves:    4116
 k-point   6 :   0.1667 0.1667 0.0000  plane waves:    4124
 k-point   7 :   0.3333 0.1667-0.0000  plane waves:    4097
 k-point   8 :   0.5000 0.1667 0.0000  plane waves:    4087
 k-point   9 :  -0.3333 0.1667 0.0000  plane waves:    4088
 k-point  10 :  -0.1667 0.1667-0.0000  plane waves:    4090
 k-point  11 :  -0.0000 0.3333-0.0000  plane waves:    4083
 k-point  12 :   0.1667 0.3333 0.0000  plane waves:    4105
 k-point  13 :   0.3333 0.3333-0.0000  plane waves:    4098
 k-point  14 :   0.5000 0.3333 0.0000  plane waves:    4083
 k-point  15 :  -0.3333 0.3333 0.0000  plane waves:    4080
 k-point  16 :  -0.1667 0.3333-0.0000  plane waves:    4081
 k-point  17 :   0.0000 0.5000-0.0000  plane waves:    4064
 k-point  18 :   0.1667 0.5000 0.0000  plane waves:    4085
 k-point  19 :   0.3333 0.5000-0.0000  plane waves:    4092
 k-point  20 :   0.5000 0.5000-0.0000  plane waves:    4070
 k-point  21 :   0.0000-0.0000 0.1667  plane waves:    4118
 k-point  22 :   0.1667 0.0000 0.1667  plane waves:    4107
 k-point  23 :   0.3333 0.0000 0.1667  plane waves:    4086
 k-point  24 :   0.5000-0.0000 0.1667  plane waves:    4087
 k-point  25 :  -0.3333 0.0000 0.1667  plane waves:    4101
 k-point  26 :  -0.1667 0.0000 0.1667  plane waves:    4113
 k-point  27 :  -0.0000 0.1667 0.1667  plane waves:    4109
 k-point  28 :   0.1667 0.1667 0.1667  plane waves:    4118
 k-point  29 :   0.3333 0.1667 0.1667  plane waves:    4106
 k-point  30 :   0.5000 0.1667 0.1667  plane waves:    4086
 k-point  31 :  -0.3333 0.1667 0.1667  plane waves:    4090
 k-point  32 :  -0.1667 0.1667 0.1667  plane waves:    4095
 k-point  33 :   0.0000 0.3333 0.1667  plane waves:    4096
 k-point  34 :   0.1667 0.3333 0.1667  plane waves:    4106
 k-point  35 :   0.3333 0.3333 0.1667  plane waves:    4084
 k-point  36 :   0.5000 0.3333 0.1667  plane waves:    4083
 k-point  37 :  -0.3333 0.3333 0.1667  plane waves:    4095
 k-point  38 :  -0.1667 0.3333 0.1667  plane waves:    4085
 k-point  39 :  -0.0000 0.5000 0.1667  plane waves:    4079
 k-point  40 :   0.1667 0.5000 0.1667  plane waves:    4093
 k-point  41 :   0.3333 0.5000 0.1667  plane waves:    4080
 k-point  42 :   0.5000 0.5000 0.1667  plane waves:    4075
 k-point  43 :  -0.3333 0.5000 0.1667  plane waves:    4090
 k-point  44 :  -0.1667 0.5000 0.1667  plane waves:    4082
 k-point  45 :  -0.0000-0.3333 0.1667  plane waves:    4096
 k-point  46 :   0.1667-0.3333 0.1667  plane waves:    4087
 k-point  47 :   0.3333-0.3333 0.1667  plane waves:    4081
 k-point  48 :   0.5000-0.3333 0.1667  plane waves:    4088
 k-point  49 :  -0.3333-0.3333 0.1667  plane waves:    4106
 k-point  50 :  -0.1667-0.3333 0.1667  plane waves:    4107
 k-point  51 :   0.0000-0.1667 0.1667  plane waves:    4110
 k-point  52 :   0.1667-0.1667 0.1667  plane waves:    4102
 k-point  53 :   0.3333-0.1667 0.1667  plane waves:    4088
 k-point  54 :   0.5000-0.1667 0.1667  plane waves:    4083
 k-point  55 :  -0.3333-0.1667 0.1667  plane waves:    4101
 k-point  56 :  -0.1667-0.1667 0.1667  plane waves:    4124
 k-point  57 :  -0.0000-0.0000 0.3333  plane waves:    4110
 k-point  58 :   0.1667-0.0000 0.3333  plane waves:    4107
 k-point  59 :   0.3333 0.0000 0.3333  plane waves:    4085
 k-point  60 :   0.5000-0.0000 0.3333  plane waves:    4096
 k-point  61 :  -0.3333-0.0000 0.3333  plane waves:    4110
 k-point  62 :  -0.1667-0.0000 0.3333  plane waves:    4110
 k-point  63 :  -0.0000 0.1667 0.3333  plane waves:    4105
 k-point  64 :   0.1667 0.1667 0.3333  plane waves:    4111
 k-point  65 :   0.3333 0.1667 0.3333  plane waves:    4105
 k-point  66 :   0.5000 0.1667 0.3333  plane waves:    4095
 k-point  67 :  -0.3333 0.1667 0.3333  plane waves:    4098
 k-point  68 :  -0.1667 0.1667 0.3333  plane waves:    4093
 k-point  69 :   0.0000 0.3333 0.3333  plane waves:    4100
 k-point  70 :   0.1667 0.3333 0.3333  plane waves:    4113
 k-point  71 :   0.3333 0.3333 0.3333  plane waves:    4085
 k-point  72 :   0.5000 0.3333 0.3333  plane waves:    4090
 k-point  73 :  -0.3333 0.3333 0.3333  plane waves:    4084
 k-point  74 :  -0.1667 0.3333 0.3333  plane waves:    4093
 k-point  75 :  -0.0000 0.5000 0.3333  plane waves:    4084
 k-point  76 :   0.1667 0.5000 0.3333  plane waves:    4092
 k-point  77 :   0.3333 0.5000 0.3333  plane waves:    4078
 k-point  78 :   0.5000 0.5000 0.3333  plane waves:    4082
 k-point  79 :  -0.3333 0.5000 0.3333  plane waves:    4092
 k-point  80 :  -0.1667 0.5000 0.3333  plane waves:    4080
 k-point  81 :  -0.0000-0.3333 0.3333  plane waves:    4112
 k-point  82 :   0.1667-0.3333 0.3333  plane waves:    4090
 k-point  83 :   0.3333-0.3333 0.3333  plane waves:    4087
 k-point  84 :   0.5000-0.3333 0.3333  plane waves:    4089
 k-point  85 :  -0.3333-0.3333 0.3333  plane waves:    4106
 k-point  86 :  -0.1667-0.3333 0.3333  plane waves:    4110
 k-point  87 :   0.0000-0.1667 0.3333  plane waves:    4102
 k-point  88 :   0.1667-0.1667 0.3333  plane waves:    4103
 k-point  89 :   0.3333-0.1667 0.3333  plane waves:    4091
 k-point  90 :   0.5000-0.1667 0.3333  plane waves:    4085
 k-point  91 :  -0.3333-0.1667 0.3333  plane waves:    4104
 k-point  92 :  -0.1667-0.1667 0.3333  plane waves:    4113
 k-point  93 :  -0.0000-0.0000 0.5000  plane waves:    4106
 k-point  94 :   0.1667-0.0000 0.5000  plane waves:    4113
 k-point  95 :   0.3333-0.0000 0.5000  plane waves:    4096
 k-point  96 :   0.5000-0.0000 0.5000  plane waves:    4082
 k-point  97 :  -0.0000 0.1667 0.5000  plane waves:    4099
 k-point  98 :   0.1667 0.1667 0.5000  plane waves:    4110
 k-point  99 :   0.3333 0.1667 0.5000  plane waves:    4109
 k-point 100 :   0.5000 0.1667 0.5000  plane waves:    4098
 k-point 101 :  -0.3333 0.1667 0.5000  plane waves:    4087
 k-point 102 :  -0.1667 0.1667 0.5000  plane waves:    4109
 k-point 103 :   0.0000 0.3333 0.5000  plane waves:    4101
 k-point 104 :   0.1667 0.3333 0.5000  plane waves:    4111
 k-point 105 :   0.3333 0.3333 0.5000  plane waves:    4095
 k-point 106 :   0.5000 0.3333 0.5000  plane waves:    4097
 k-point 107 :  -0.3333 0.3333 0.5000  plane waves:    4097
 k-point 108 :  -0.1667 0.3333 0.5000  plane waves:    4087
 k-point 109 :   0.0000 0.5000 0.5000  plane waves:    4082
 k-point 110 :   0.1667 0.5000 0.5000  plane waves:    4091
 k-point 111 :   0.3333 0.5000 0.5000  plane waves:    4087
 k-point 112 :   0.5000 0.5000 0.5000  plane waves:    4078

 maximum and minimum number of plane-waves per node :      4131     4064

 maximum number of plane-waves:      4131
 maximum index in each direction: 
   IXMAX=    8   IYMAX=    8   IZMAX=   17
   IXMIN=   -8   IYMIN=   -8   IZMIN=  -18


 serial   3D FFT for wavefunctions
 parallel 3D FFT for charge:
    minimum data exchange during FFTs selected (reduces bandwidth)


 total amount of memory used by VASP MPI-rank0   365244. kBytes
=======================================================================

   base      :      30000. kBytes
   nonl-proj :     134469. kBytes
   fftplans  :       1593. kBytes
   grid      :      10138. kBytes
   one-center:        497. kBytes
   wavefun   :     188547. kBytes
 
     INWAV:  cpu time      0.0000: real time      0.0002
 Broyden mixing: mesh for mixing (old mesh)
   NGX = 17   NGY = 17   NGZ = 35
  (NGX  = 48   NGY  = 50   NGZ  =108)
  gives a total of  10115 points

 initial charge density was supplied:
 charge density of overlapping atoms calculated
 number of electron     144.0000000 magnetization      16.0000000
 keeping initial charge density in first step


--------------------------------------------------------------------------------------------------------


 Maximum index for augmentation-charges          741 (set IRDMAX)


--------------------------------------------------------------------------------------------------------


 First call to EWALD:  gamma=   0.272
 Maximum number of real-space cells 4x 4x 2
 Maximum number of reciprocal cells 2x 2x 5

    FEWALD:  cpu time      0.0011: real time      0.0011


--------------------------------------- Iteration      1(   1)  ---------------------------------------


    POTLOK:  cpu time      0.0309: real time      0.0431
    SETDIJ:  cpu time      0.0081: real time      0.0081
     EDDAV:  cpu time     33.1150: real time     33.3382
 BZINTS: Fermi energy:   16.558761;  144.000000 electrons
         Band energy: 0.146014E+04;  BLOECHL correction:   -0.045272
       DOS:  cpu time      0.2724: real time      0.2735
    --------------------------------------------
      LOOP:  cpu time     33.4264: real time     33.6630

 eigenvalue-minimisations  : 43048
 total energy-change (2. order) : 0.7314299E+03  (-0.5512598E+04)
 number of electron     144.0000000 magnetization      16.0000000
 augmentation part      144.0000000 magnetization      16.0000000

 Free energy of the ion-electron system (eV)
  ---------------------------------------------------
  alpha Z        PSCENC =       482.70381517
  Ewald energy   TEWEN  =    -10818.53554897
  -Hartree energ DENC   =     -3506.76576698
  -exchange      EXHF   =         0.00000000
  -V(xc)+E(xc)   XCENC  =      -228.24488851
  PAW double counting   =     12304.84164343   -11623.74183127
  entropy T*S    EENTRO =         0.00000000
  eigenvalues    EBANDS =      1460.13681734
  atomic energy  EATOM  =     12661.03566269
  Solvation  Ediel_sol  =         0.00000000
  ---------------------------------------------------
  free energy    TOTEN  =       731.42990290 eV

  energy without entropy =      731.42990290  energy(sigma->0) =      731.42990290


--------------------------------------------------------------------------------------------------------




--------------------------------------- Iteration      1(   2)  ---------------------------------------


     EDDAV:  cpu time     33.5124: real time     33.7376
 BZINTS: Fermi energy:    9.032995;  144.000000 electrons
         Band energy: 0.702136E+03;  BLOECHL correction:   -0.086504
       DOS:  cpu time      0.2592: real time      0.2602
    --------------------------------------------
      LOOP:  cpu time     33.7715: real time     33.9977

 eigenvalue-minimisations  : 44944
 total energy-change (2. order) :-0.7580010E+03  (-0.7142903E+03)
 number of electron     144.0000000 magnetization      16.0000000
 augmentation part      144.0000000 magnetization      16.0000000

 Free energy of the ion-electron system (eV)
  ---------------------------------------------------
  alpha Z        PSCENC =       482.70381517
  Ewald energy   TEWEN  =    -10818.53554897
  -Hartree energ DENC   =     -3506.76576698
  -exchange      EXHF   =         0.00000000
  -V(xc)+E(xc)   XCENC  =      -228.24488851
  PAW double counting   =     12304.84164343   -11623.74183127
  entropy T*S    EENTRO =         0.00000000
  eigenvalues    EBANDS =       702.13585890
  atomic energy  EATOM  =     12661.03566269
  Solvation  Ediel_sol  =         0.00000000
  ---------------------------------------------------
  free energy    TOTEN  =       -26.57105554 eV

  energy without entropy =      -26.57105554  energy(sigma->0) =      -26.57105554


--------------------------------------------------------------------------------------------------------




--------------------------------------- Iteration      1(   3)  ---------------------------------------


     EDDAV:  cpu time     33.2387: real time     33.4803
 BZINTS: Fermi energy:    8.754481;  144.000000 electrons
         Band energy: 0.677738E+03;  BLOECHL correction:   -0.080338
       DOS:  cpu time      0.2593: real time      0.2602
    --------------------------------------------
      LOOP:  cpu time     33.4980: real time     33.7404

 eigenvalue-minimisations  : 48256
 total energy-change (2. order) :-0.2439809E+02  (-0.2405565E+02)
 number of electron     144.0000000 magnetization      16.0000000
 augmentation part      144.0000000 magnetization      16.0000000

 Free energy of the ion-electron system (eV)
  ---------------------------------------------------
  alpha Z        PSCENC =       482.70381517
  Ewald energy   TEWEN  =    -10818.53554897
  -Hartree energ DENC   =     -3506.76576698
  -exchange      EXHF   =         0.00000000
  -V(xc)+E(xc)   XCENC  =      -228.24488851
  PAW double counting   =     12304.84164343   -11623.74183127
  entropy T*S    EENTRO =         0.00000000
  eigenvalues    EBANDS =       677.73777093
  atomic energy  EATOM  =     12661.03566269
  Solvation  Ediel_sol  =         0.00000000
  ---------------------------------------------------
  free energy    TOTEN  =       -50.96914351 eV

  energy without entropy =      -50.96914351  energy(sigma->0) =      -50.96914351


--------------------------------------------------------------------------------------------------------




--------------------------------------- Iteration      1(   4)  ---------------------------------------


     EDDAV:  cpu time     31.8881: real time     32.1076
 BZINTS: Fermi energy:    8.750888;  144.000000 electrons
         Band energy: 0.677562E+03;  BLOECHL correction:   -0.080146
       DOS:  cpu time      0.2513: real time      0.2523
    --------------------------------------------
      LOOP:  cpu time     32.1394: real time     32.3599

 eigenvalue-minimisations  : 46960
 total energy-change (2. order) :-0.1755671E+00  (-0.1753876E+00)
 number of electron     144.0000000 magnetization      16.0000000
 augmentation part      144.0000000 magnetization      16.0000000

 Free energy of the ion-electron system (eV)
  ---------------------------------------------------
  alpha Z        PSCENC =       482.70381517
  Ewald energy   TEWEN  =    -10818.53554897
  -Hartree energ DENC   =     -3506.76576698
  -exchange      EXHF   =         0.00000000
  -V(xc)+E(xc)   XCENC  =      -228.24488851
  PAW double counting   =     12304.84164343   -11623.74183127
  entropy T*S    EENTRO =         0.00000000
  eigenvalues    EBANDS =       677.56220380
  atomic energy  EATOM  =     12661.03566269
  Solvation  Ediel_sol  =         0.00000000
  ---------------------------------------------------
  free energy    TOTEN  =       -51.14471064 eV

  energy without entropy =      -51.14471064  energy(sigma->0) =      -51.14471064


--------------------------------------------------------------------------------------------------------




--------------------------------------- Iteration      1(   5)  ---------------------------------------


     EDDAV:  cpu time     34.9280: real time     35.1954
 BZINTS: Fermi energy:    8.750862;  144.000000 electrons
         Band energy: 0.677560E+03;  BLOECHL correction:   -0.080145
       DOS:  cpu time      0.2575: real time      0.2585
    CHARGE:  cpu time      1.3308: real time      1.3376
    MIXING:  cpu time      0.0010: real time      0.0010
    --------------------------------------------
      LOOP:  cpu time     36.5174: real time     36.7925

 eigenvalue-minimisations  : 46664
 total energy-change (2. order) :-0.2073509E-02  (-0.2073494E-02)
 number of electron     144.0000024 magnetization      10.5094815
 augmentation part       59.6771758 magnetization       9.1952359

 Broyden mixing:
  rms(total) = 0.24729E+01    rms(broyden)= 0.24728E+01
  rms(prec ) = 0.27686E+01
  weight for this iteration     100.00

 Free energy of the ion-electron system (eV)
  ---------------------------------------------------
  alpha Z        PSCENC =       482.70381517
  Ewald energy   TEWEN  =    -10818.53554897
  -Hartree energ DENC   =     -3506.76576698
  -exchange      EXHF   =         0.00000000
  -V(xc)+E(xc)   XCENC  =      -228.24488851
  PAW double counting   =     12304.84164343   -11623.74183127
  entropy T*S    EENTRO =         0.00000000
  eigenvalues    EBANDS =       677.56013029
  atomic energy  EATOM  =     12661.03566269
  Solvation  Ediel_sol  =         0.00000000
  ---------------------------------------------------
  free energy    TOTEN  =       -51.14678415 eV

  energy without entropy =      -51.14678415  energy(sigma->0) =      -51.14678415


--------------------------------------------------------------------------------------------------------




--------------------------------------- Iteration      1(   6)  ---------------------------------------


    POTLOK:  cpu time      0.0290: real time      0.0293
    SETDIJ:  cpu time      0.0077: real time      0.0077
     EDDAV:  cpu time     35.0292: real time     35.2595
 BZINTS: Fermi energy:    8.401670;  144.000000 electrons
         Band energy: 0.528582E+03;  BLOECHL correction:   -0.109681
       DOS:  cpu time      0.2530: real time      0.2540
    CHARGE:  cpu time      1.3072: real time      1.3141
    MIXING:  cpu time      0.0012: real time      0.0012
    --------------------------------------------
      LOOP:  cpu time     36.6273: real time     36.8658

 eigenvalue-minimisations  : 47080
 total energy-change (2. order) : 0.5047223E+01  (-0.2302834E+01)
 number of electron     144.0000026 magnetization       7.4750289
 augmentation part       62.7692513 magnetization       5.0286997

 Broyden mixing:
  rms(total) = 0.14844E+01    rms(broyden)= 0.14843E+01
  rms(prec ) = 0.14944E+01
  weight for this iteration     100.00

 eigenvalues of (default mixing * dielectric matrix)
  average eigenvalue GAMMA=   0.8380
  0.8380

 Free energy of the ion-electron system (eV)
  ---------------------------------------------------
  alpha Z        PSCENC =       482.70381517
  Ewald energy   TEWEN  =    -10818.53554897
  -Hartree energ DENC   =     -3334.20816303
  -exchange      EXHF   =         0.00000000
  -V(xc)+E(xc)   XCENC  =      -233.83953447
  PAW double counting   =     12853.45718879   -12185.29498970
  entropy T*S    EENTRO =         0.00000000
  eigenvalues    EBANDS =       528.58200816
  atomic energy  EATOM  =     12661.03566269
  Solvation  Ediel_sol  =         0.00000000
  ---------------------------------------------------
  free energy    TOTEN  =       -46.09956135 eV

  energy without entropy =      -46.09956135  energy(sigma->0) =      -46.09956135


--------------------------------------------------------------------------------------------------------




--------------------------------------- Iteration      1(   7)  ---------------------------------------


    POTLOK:  cpu time      0.0285: real time      0.0424
    SETDIJ:  cpu time      0.0079: real time      0.0079
     EDDAV:  cpu time     29.0527: real time     29.2497
 BZINTS: Fermi energy:    8.395789;  144.000000 electrons
         Band energy: 0.537766E+03;  BLOECHL correction:   -0.118127
       DOS:  cpu time      0.2603: real time      0.2612
    CHARGE:  cpu time      1.3254: real time      1.3323
    MIXING:  cpu time      0.0010: real time      0.0011
    --------------------------------------------
      LOOP:  cpu time     30.6758: real time     30.8945

 eigenvalue-minimisations  : 45504
 total energy-change (2. order) :-0.1324297E+01  (-0.9422275E-01)
 number of electron     144.0000026 magnetization       2.6883123
 augmentation part       62.5776480 magnetization       1.1133678

 Broyden mixing:
  rms(total) = 0.85324E+00    rms(broyden)= 0.85324E+00
  rms(prec ) = 0.85993E+00
  weight for this iteration     100.00

 eigenvalues of (default mixing * dielectric matrix)
  average eigenvalue GAMMA=   1.1938
  0.8128  1.5749

 Free energy of the ion-electron system (eV)
  ---------------------------------------------------
  alpha Z        PSCENC =       482.70381517
  Ewald energy   TEWEN  =    -10818.53554897
  -Hartree energ DENC   =     -3334.98971170
  -exchange      EXHF   =         0.00000000
  -V(xc)+E(xc)   XCENC  =      -234.70440450
  PAW double counting   =     13230.09486102   -12570.79412921
  entropy T*S    EENTRO =         0.00000000
  eigenvalues    EBANDS =       537.76559691
  atomic energy  EATOM  =     12661.03566269
  Solvation  Ediel_sol  =         0.00000000
  ---------------------------------------------------
  free energy    TOTEN  =       -47.42385859 eV

  energy without entropy =      -47.42385859  energy(sigma->0) =      -47.42385859


--------------------------------------------------------------------------------------------------------




--------------------------------------- Iteration      1(   8)  ---------------------------------------


    POTLOK:  cpu time      0.0270: real time      0.0273
    SETDIJ:  cpu time      0.0077: real time      0.0078
     EDDAV:  cpu time     34.5484: real time     34.7794
 BZINTS: Fermi energy:    8.367265;  144.000000 electrons
         Band energy: 0.535540E+03;  BLOECHL correction:   -0.126181
       DOS:  cpu time      0.2567: real time      0.2577
    CHARGE:  cpu time      1.3345: real time      1.3415
    MIXING:  cpu time      0.0012: real time      0.0012
    --------------------------------------------
      LOOP:  cpu time     36.1755: real time     36.4149

 eigenvalue-minimisations  : 46040
 total energy-change (2. order) :-0.8768444E+00  (-0.5448321E-01)
 number of electron     144.0000026 magnetization       1.2720088
 augmentation part       62.5646001 magnetization       0.6817292

 Broyden mixing:
  rms(total) = 0.33646E+00    rms(broyden)= 0.33646E+00
  rms(prec ) = 0.33864E+00
  weight for this iteration     100.00

 eigenvalues of (default mixing * dielectric matrix)
  average eigenvalue GAMMA=   1.3214
  2.4515  0.8986  0.6140

 Free energy of the ion-electron system (eV)
  ---------------------------------------------------
  alpha Z        PSCENC =       482.70381517
  Ewald energy   TEWEN  =    -10818.53554897
  -Hartree energ DENC   =     -3321.23148572
  -exchange      EXHF   =         0.00000000
  -V(xc)+E(xc)   XCENC  =      -235.61988676
  PAW double counting   =     13802.60223582   -13154.79520086
  entropy T*S    EENTRO =         0.00000000
  eigenvalues    EBANDS =       535.53970560
  atomic energy  EATOM  =     12661.03566269
  Solvation  Ediel_sol  =         0.00000000
  ---------------------------------------------------
  free energy    TOTEN  =       -48.30070303 eV

  energy without entropy =      -48.30070303  energy(sigma->0) =      -48.30070303


--------------------------------------------------------------------------------------------------------




--------------------------------------- Iteration      1(   9)  ---------------------------------------


    POTLOK:  cpu time      0.0301: real time      0.0440
    SETDIJ:  cpu time      0.0080: real time      0.0080
     EDDAV:  cpu time     35.1092: real time     35.3386
 BZINTS: Fermi energy:    8.359490;  144.000000 electrons
         Band energy: 0.532700E+03;  BLOECHL correction:   -0.127670
       DOS:  cpu time      0.2638: real time      0.2651
    CHARGE:  cpu time      1.7252: real time      1.7360
    MIXING:  cpu time      0.0013: real time      0.0013
    --------------------------------------------
      LOOP:  cpu time     37.1375: real time     37.3930

 eigenvalue-minimisations  : 47656
 total energy-change (2. order) :-0.7778376E-01  (-0.3319526E-02)
 number of electron     144.0000026 magnetization       0.4041233
 augmentation part       62.6070253 magnetization       0.1323722

 Broyden mixing:
  rms(total) = 0.69464E-01    rms(broyden)= 0.69463E-01
  rms(prec ) = 0.70725E-01
  weight for this iteration     100.00

 eigenvalues of (default mixing * dielectric matrix)
  average eigenvalue GAMMA=   1.3910
  2.6966  1.3431  0.8914  0.6329

 Free energy of the ion-electron system (eV)
  ---------------------------------------------------
  alpha Z        PSCENC =       482.70381517
  Ewald energy   TEWEN  =    -10818.53554897
  -Hartree energ DENC   =     -3315.74052154
  -exchange      EXHF   =         0.00000000
  -V(xc)+E(xc)   XCENC  =      -235.84264749
  PAW double counting   =     13928.97007361   -13283.66946817
  entropy T*S    EENTRO =         0.00000000
  eigenvalues    EBANDS =       532.70014791
  atomic energy  EATOM  =     12661.03566269
  Solvation  Ediel_sol  =         0.00000000
  ---------------------------------------------------
  free energy    TOTEN  =       -48.37848679 eV

  energy without entropy =      -48.37848679  energy(sigma->0) =      -48.37848679


--------------------------------------------------------------------------------------------------------




--------------------------------------- Iteration      1(  10)  ---------------------------------------


    POTLOK:  cpu time      0.0275: real time      0.0279
    SETDIJ:  cpu time      0.0078: real time      0.0079
     EDDAV:  cpu time     33.2923: real time     33.5114
 BZINTS: Fermi energy:    8.356359;  144.000000 electrons
         Band energy: 0.531224E+03;  BLOECHL correction:   -0.128405
       DOS:  cpu time      0.2622: real time      0.2631
    CHARGE:  cpu time      1.3262: real time      1.3328
    MIXING:  cpu time      0.0010: real time      0.0011
    --------------------------------------------
      LOOP:  cpu time     34.9171: real time     35.1442

 eigenvalue-minimisations  : 47096
 total energy-change (2. order) :-0.2523067E-01  (-0.1187445E-02)
 number of electron     144.0000026 magnetization       0.1680024
 augmentation part       62.6254833 magnetization       0.0831029

 Broyden mixing:
  rms(total) = 0.32126E-01    rms(broyden)= 0.32126E-01
  rms(prec ) = 0.32668E-01
  weight for this iteration     100.00

 eigenvalues of (default mixing * dielectric matrix)
  average eigenvalue GAMMA=   1.3491
  2.7306  1.7023  0.8599  0.7966  0.6563

 Free energy of the ion-electron system (eV)
  ---------------------------------------------------
  alpha Z        PSCENC =       482.70381517
  Ewald energy   TEWEN  =    -10818.53554897
  -Hartree energ DENC   =     -3313.80626773
  -exchange      EXHF   =         0.00000000
  -V(xc)+E(xc)   XCENC  =      -235.90108466
  PAW double counting   =     13943.12638473   -13298.25059208
  entropy T*S    EENTRO =         0.00000000
  eigenvalues    EBANDS =       531.22391339
[...]
     22       2.8806      1.00000
     23       2.9226      1.00000
     24       2.9636      1.00000
     25       2.9763      1.00000
     26       3.0817      1.00000
     27       3.1093      1.00000
     28       3.1225      1.00000
     29       3.1856      1.00000
     30       3.2123      1.00000
     31       3.2938      1.00000
     32       3.3147      1.00000
     33       3.3422      1.00000
     34       3.3843      1.00000
     35       3.4480      1.00000
     36       3.5199      1.00000
     37       3.5311      1.00000
     38       3.5638      1.00000
     39       3.5853      1.00000
     40       3.6636      1.00000
     41       3.6923      1.00000
     42       3.7700      1.00000
     43       3.7880      1.00000
     44       3.8119      1.00000
     45       3.8943      1.00000
     46       3.9686      1.00000
     47       4.0187      1.00000
     48       4.0863      1.00000
     49       4.0963      1.00000
     50       4.1979      1.00000
     51       4.2706      1.00000
     52       4.3197      1.00000
     53       4.4049      1.00000
     54       4.5062      1.00000
     55       4.5160      1.00000
     56       4.6080      1.00000
     57       4.6461      1.00000
     58       4.6928      1.00000
     59       4.7537      1.00000
     60       4.7686      1.00000
     61       4.7876      1.00000
     62       4.8427      1.00000
     63       4.9370      1.00000
     64       4.9661      1.00000
     65       5.0748      1.00000
     66       5.2384      1.00000
     67       6.6113      1.00000
     68       6.9467      1.00000
     69       6.9921      1.00000
     70       7.2930      1.00000
     71       7.7446      1.00000
     72       8.4166      0.36169
     73       8.8079      0.00000
     74       8.8508      0.00000
     75      10.0497      0.00000
     76      10.1639      0.00000
     77      10.4899      0.00000
     78      10.9738      0.00000
     79      11.6394      0.00000
     80      12.3174      0.00000
     81      12.4895      0.00000
     82      12.6317      0.00000
     83      12.7567      0.00000
     84      12.9268      0.00000
     85      13.8297      0.00000
     86      13.9424      0.00000
     87      14.0988      0.00000
     88      14.2749      0.00000
     89      14.3899      0.00000
     90      14.6579      0.00000
     91      14.7611      0.00000
     92      14.9356      0.00000
     93      15.1540      0.00000
     94      15.3142      0.00000
     95      15.5593      0.00000
     96      15.9244      0.00000


--------------------------------------------------------------------------------------------------------


 soft charge-density along one line, spin component           1
         0         1         2         3         4         5         6         7         8         9
 total charge-density along one line
 
 soft charge-density along one line, spin component           2
         0         1         2         3         4         5         6         7         8         9
 total charge-density along one line
 
 pseudopotential strength for first ion, spin component:           1
 -4.182   0.000  -0.009  -0.000  -0.001  -4.408   0.000  -0.009
  0.000  -4.174  -0.001   0.008   0.000   0.000  -4.400  -0.001
 -0.009  -0.001  -4.173   0.000  -0.008  -0.009  -0.001  -4.400
 -0.000   0.008   0.000  -4.162   0.000  -0.000   0.008   0.000
 -0.001   0.000  -0.008   0.000  -4.182  -0.001   0.000  -0.008
 -4.408   0.000  -0.009  -0.000  -0.001  -4.600   0.000  -0.008
  0.000  -4.400  -0.001   0.008   0.000   0.000  -4.592  -0.001
 -0.009  -0.001  -4.400   0.000  -0.008  -0.008  -0.001  -4.592
 -0.000   0.008   0.000  -4.389   0.000  -0.000   0.008   0.000
 -0.001   0.000  -0.008   0.000  -4.408  -0.001   0.000  -0.007
 -0.003   0.000  -0.002  -0.000  -0.002  -0.003   0.000  -0.002
 -0.005   0.001  -0.004  -0.001  -0.003  -0.005   0.001  -0.004
 -0.002   0.000  -0.002  -0.000  -0.002  -0.002   0.000  -0.002
 -0.000   0.002   0.000  -0.001   0.000  -0.000   0.002   0.000
  0.003  -0.000   0.001   0.001  -0.000   0.003  -0.000   0.001
 -0.002   0.000  -0.003  -0.000  -0.003  -0.002   0.000  -0.003
 -0.000   0.003   0.000  -0.001   0.000  -0.000   0.003   0.000
  0.004  -0.000   0.001   0.001  -0.001   0.004  -0.000   0.001
 pseudopotential strength for first ion, spin component:           2
 -4.182   0.000  -0.009  -0.000  -0.001  -4.408   0.000  -0.009
  0.000  -4.174  -0.001   0.008   0.000   0.000  -4.400  -0.001
 -0.009  -0.001  -4.173   0.000  -0.008  -0.009  -0.001  -4.400
 -0.000   0.008   0.000  -4.162   0.000  -0.000   0.008   0.000
 -0.001   0.000  -0.008   0.000  -4.182  -0.001   0.000  -0.008
 -4.408   0.000  -0.009  -0.000  -0.001  -4.600   0.000  -0.008
  0.000  -4.400  -0.001   0.008   0.000   0.000  -4.592  -0.001
 -0.009  -0.001  -4.400   0.000  -0.008  -0.008  -0.001  -4.592
 -0.000   0.008   0.000  -4.389   0.000  -0.000   0.008   0.000
 -0.001   0.000  -0.008   0.000  -4.408  -0.001   0.000  -0.007
 -0.003   0.000  -0.002  -0.000  -0.002  -0.003   0.000  -0.002
 -0.005   0.001  -0.004  -0.001  -0.003  -0.005   0.001  -0.004
 -0.002   0.000  -0.002  -0.000  -0.002  -0.002   0.000  -0.002
 -0.000   0.002   0.000  -0.001   0.000  -0.000   0.002   0.000
  0.003  -0.000   0.001   0.001  -0.000   0.003  -0.000   0.001
 -0.002   0.000  -0.003  -0.000  -0.003  -0.002   0.000  -0.003
 -0.000   0.003   0.000  -0.001   0.000  -0.000   0.003   0.000
  0.004  -0.000   0.001   0.001  -0.001   0.004  -0.000   0.001
 total augmentation occupancy for first ion, spin component:           1
  3.357  -0.020  -0.029   0.018  -0.083  -1.362   0.023  -0.001  -0.019   0.065   0.161  -0.045   0.041   0.004  -0.084  -0.003
 -0.020   3.479   0.013   0.005  -0.024   0.023  -1.404  -0.021   0.029   0.027  -0.038   0.007   0.000  -0.022   0.001   0.000
 -0.029   0.013   3.353  -0.005  -0.080  -0.000  -0.021  -1.370   0.008   0.051   0.102  -0.025   0.033   0.004  -0.031  -0.003
  0.018   0.005  -0.005   3.466   0.017  -0.019   0.029   0.008  -1.366  -0.012   0.026  -0.003   0.002   0.013   0.002  -0.000
 -0.083  -0.024  -0.080   0.017   3.356   0.065   0.027   0.051  -0.012  -1.365   0.061  -0.025  -0.009  -0.004   0.018  -0.001
 -1.362   0.023  -0.000  -0.019   0.065   1.311  -0.026   0.027   0.020  -0.049  -0.135   0.030  -0.048  -0.004   0.091   0.003
  0.023  -1.404  -0.021   0.029   0.027  -0.026   1.288   0.029  -0.059  -0.030   0.040  -0.008  -0.002   0.022  -0.001   0.000
 -0.001  -0.021  -1.370   0.008   0.051   0.027   0.029   1.328  -0.011  -0.025  -0.083   0.015  -0.038  -0.004   0.031   0.002
 -0.019   0.029   0.008  -1.366  -0.012   0.020  -0.059  -0.011   1.226   0.009  -0.025   0.004  -0.002  -0.014  -0.001   0.000
  0.065   0.027   0.051  -0.012  -1.365  -0.049  -0.030  -0.025   0.009   1.319  -0.049   0.014   0.005   0.004  -0.014  -0.000
  0.161  -0.038   0.102   0.026   0.061  -0.135   0.040  -0.083  -0.025  -0.049   2.124  -0.393   0.032  -0.000  -0.019  -0.002
 -0.045   0.007  -0.025  -0.003  -0.025   0.030  -0.008   0.015   0.004   0.014  -0.393   0.093  -0.009  -0.001   0.006   0.001
  0.041   0.000   0.033   0.002  -0.009  -0.048  -0.002  -0.038  -0.002   0.005   0.032  -0.009   0.178   0.003  -0.007  -0.011
  0.004  -0.022   0.004   0.013  -0.004  -0.004   0.022  -0.004  -0.014   0.004  -0.000  -0.001   0.003   0.169  -0.003  -0.000
 -0.084   0.001  -0.031   0.002   0.018   0.091  -0.001   0.031  -0.001  -0.014  -0.019   0.006  -0.007  -0.003   0.178   0.001
 -0.003   0.000  -0.003  -0.000  -0.001   0.003   0.000   0.002   0.000  -0.000  -0.002   0.001  -0.011  -0.000   0.001   0.001
 -0.000   0.002   0.000  -0.001   0.000   0.000  -0.001   0.000   0.001  -0.000  -0.000   0.000  -0.000  -0.010   0.000   0.000
  0.005  -0.000   0.002   0.000  -0.001  -0.005   0.000  -0.002  -0.000   0.000   0.002  -0.000   0.001   0.000  -0.010  -0.000
 total augmentation occupancy for first ion, spin component:           2
 -0.000  -0.000   0.000   0.000  -0.000  -0.000   0.000   0.000  -0.000   0.000  -0.000   0.000   0.000   0.000  -0.000  -0.000
 -0.000  -0.000  -0.000   0.000   0.000   0.000  -0.000   0.000  -0.000   0.000  -0.000  -0.000  -0.000   0.000   0.000   0.000
  0.000  -0.000  -0.000   0.000   0.000   0.000   0.000  -0.000   0.000  -0.000  -0.000   0.000  -0.000  -0.000  -0.000   0.000
  0.000   0.000   0.000  -0.000  -0.000  -0.000  -0.000   0.000  -0.000   0.000   0.000   0.000   0.000   0.000  -0.000   0.000
 -0.000   0.000   0.000  -0.000  -0.000   0.000   0.000  -0.000   0.000  -0.000  -0.000   0.000  -0.000  -0.000  -0.000  -0.000
 -0.000   0.000   0.000  -0.000   0.000   0.000  -0.000  -0.000   0.000  -0.000   0.000   0.000  -0.000  -0.000   0.000   0.000
  0.000  -0.000   0.000  -0.000   0.000  -0.000   0.000  -0.000   0.000  -0.000  -0.000   0.000   0.000  -0.000  -0.000   0.000
  0.000   0.000  -0.000   0.000  -0.000  -0.000  -0.000   0.000  -0.000   0.000  -0.000   0.000   0.000   0.000  -0.000   0.000
 -0.000  -0.000   0.000  -0.000   0.000   0.000   0.000  -0.000   0.000  -0.000   0.000  -0.000  -0.000   0.000   0.000   0.000
  0.000   0.000  -0.000   0.000  -0.000  -0.000  -0.000   0.000  -0.000   0.000  -0.000   0.000   0.000   0.000   0.000   0.000
 -0.000  -0.000  -0.000   0.000  -0.000   0.000  -0.000  -0.000   0.000  -0.000  -0.000   0.000   0.000  -0.000  -0.000  -0.000
  0.000  -0.000   0.000   0.000   0.000   0.000   0.000   0.000  -0.000   0.000   0.000  -0.000  -0.000   0.000   0.000   0.000
  0.000  -0.000  -0.000   0.000  -0.000  -0.000   0.000   0.000  -0.000   0.000   0.000  -0.000   0.000   0.000   0.000   0.000
  0.000   0.000  -0.000   0.000  -0.000  -0.000  -0.000   0.000   0.000   0.000  -0.000   0.000   0.000   0.000  -0.000   0.000
 -0.000   0.000  -0.000  -0.000  -0.000   0.000  -0.000  -0.000   0.000   0.000  -0.000   0.000   0.000  -0.000   0.000   0.000
 -0.000   0.000   0.000   0.000  -0.000   0.000   0.000   0.000   0.000   0.000  -0.000   0.000   0.000   0.000   0.000  -0.000
  0.000  -0.000   0.000   0.000  -0.000  -0.000   0.000  -0.000   0.000  -0.000   0.000  -0.000   0.000   0.000  -0.000  -0.000
 -0.000   0.000  -0.000   0.000   0.000  -0.000   0.000  -0.000  -0.000  -0.000   0.000  -0.000   0.000  -0.000   0.000  -0.000


------------------------ aborting loop because EDIFF is reached ----------------------------------------


    CHARGE:  cpu time      1.3398: real time      1.3470
    FORLOC:  cpu time      0.0023: real time      0.0023
    FORNL :  cpu time      9.1254: real time      9.1624
    STRESS:  cpu time     10.0695: real time     10.1225
    FORCOR:  cpu time      0.0273: real time      0.0274
    FORHAR:  cpu time      0.0045: real time      0.0045
    MIXING:  cpu time      0.0017: real time      0.0017
    OFIELD:  cpu time      0.0000: real time      0.0000

  FORCE on cell =-STRESS in cart. coord.  units (eV):
  Direction    XX          YY          ZZ          XY          YZ          ZX
  --------------------------------------------------------------------------------------
  Alpha Z   482.70382   482.70382   482.70382
  Ewald   -3512.12181 -3925.45910 -3380.97761   364.75954   185.64646  -168.54995
  Hartree  1206.83223   789.42018  1318.50628   349.45468   185.15953  -161.92134
  E(xc)    -730.99213  -730.84340  -730.85161     0.07606     0.00675     0.01037
  Local    -227.81785   604.30518  -469.00969  -713.13203  -370.91998   331.01229
  n-local   -12.06957   -12.44684   -11.91283     0.27292     0.03405     0.21175
  augment  1101.34241  1100.86045  1100.57994    -0.50574     0.04452    -0.35179
  Kinetic  1690.96625  1690.34671  1689.68222    -0.73279     0.12194    -0.49634
  Fock        0.00000     0.00000     0.00000     0.00000     0.00000     0.00000
  -------------------------------------------------------------------------------------
  Total      -1.15666    -1.11300    -1.27948     0.19264     0.09328    -0.08501
  in kB      -6.72715    -6.47322    -7.44151     1.12040     0.54249    -0.49445
  external pressure =       -6.88 kB  Pullay stress =        0.00 kB


 VOLUME and BASIS-vectors are now :
 -----------------------------------------------------------------------------
  energy-cutoff  :      350.00
  volume of cell :      275.48
      direct lattice vectors                 reciprocal lattice vectors
     1.396352044  2.521020909  4.713964667     0.174866287  0.099825329  0.106951027
    -2.909762551  0.016425859  4.742167261    -0.173507110 -0.099778240  0.104756839
     5.820463868-10.158223826 -0.035108264     0.043116943 -0.073829560  0.026712002

  length of vectors
     5.525107088  5.563734200 11.707627579     0.227995256  0.225907967  0.089573466


 FORCES acting on ions
    electron-ion (+dipol)            ewald-force                    non-local-force                 convergence-correction
 -----------------------------------------------------------------------------------------------
   0.771E+02 -.137E+03 0.250E+02   -.770E+02 0.137E+03 -.250E+02   -.267E-01 -.442E-01 0.290E-01   0.279E-04 -.485E-04 -.248E-04
   0.173E+03 -.305E+03 0.749E+02   -.173E+03 0.305E+03 -.749E+02   -.318E+00 -.226E+00 -.139E-01   0.374E-04 -.106E-03 0.251E-04
   0.176E+03 -.302E+03 0.119E+03   -.176E+03 0.301E+03 -.119E+03   0.502E-01 0.803E-01 -.343E-01   0.481E-04 -.953E-04 0.381E-04
   -.129E+03 0.198E+03 -.646E+02   0.129E+03 -.197E+03 0.641E+02   0.436E-01 -.233E+00 0.465E+00   -.527E-04 0.780E-04 -.432E-04
   -.419E+02 0.982E+02 -.704E+02   0.417E+02 -.981E+02 0.704E+02   0.220E+00 -.673E-01 -.488E-01   -.386E-04 0.701E-04 -.334E-04
   -.111E+03 0.172E+03 -.451E+02   0.111E+03 -.172E+03 0.449E+02   0.207E+00 0.835E-01 0.155E+00   -.119E-04 0.898E-04 -.388E-04
   0.105E+03 -.194E+03 0.106E+03   -.105E+03 0.194E+03 -.106E+03   -.313E+00 0.249E+00 -.147E+00   0.401E-04 -.805E-04 0.417E-04
   -.111E+02 0.290E+02 0.155E+02   0.113E+02 -.292E+02 -.153E+02   -.237E+00 0.130E+00 -.204E+00   -.293E-04 0.496E-04 0.220E-04
   -.952E+02 0.190E+03 0.197E+02   0.953E+02 -.191E+03 -.202E+02   -.108E+00 0.466E+00 0.525E+00   0.248E-05 0.271E-04 -.440E-05
   -.128E+03 0.235E+03 -.113E+03   0.128E+03 -.235E+03 0.113E+03   0.425E-01 -.215E+00 -.510E+00   -.841E-05 0.582E-04 0.920E-05
   -.134E+03 0.168E+03 -.101E+03   0.134E+03 -.168E+03 0.101E+03   -.158E+00 -.243E+00 -.259E-01   -.312E-04 0.570E-04 -.312E-04
   0.112E+03 -.147E+03 0.354E+02   -.112E+03 0.147E+03 -.350E+02   0.124E+00 0.590E-01 -.386E+00   0.232E-04 -.394E-04 0.405E-05
   -.395E+02 0.737E+02 -.223E+02   0.389E+02 -.729E+02 0.220E+02   0.564E+00 -.817E+00 0.238E+00   -.676E-05 0.888E-05 -.267E-05
   -.581E+01 0.854E+01 -.208E+02   0.559E+01 -.850E+01 0.209E+02   0.213E+00 -.293E-01 -.348E-01   -.318E-05 0.282E-05 -.278E-05
   0.538E+02 -.790E+02 0.309E+02   -.535E+02 0.781E+02 -.308E+02   -.318E+00 0.961E+00 -.909E-01   0.798E-05 -.121E-04 0.579E-05
   -.192E+01 -.834E+01 0.986E+01   0.196E+01 0.825E+01 -.989E+01   -.308E-01 0.697E-01 0.365E-01   0.251E-05 -.416E-05 0.351E-05
 -----------------------------------------------------------------------------------------------
   0.442E-01 -.222E+00 0.456E-01   0.444E-13 -.316E-12 0.107E-12   -.450E-01 0.222E+00 -.462E-01   0.782E-05 0.562E-04 -.318E-04
 
 
 POSITION                                       TOTAL-FORCE (eV/Angst)
 -----------------------------------------------------------------------------------
      2.78568     -0.01684      4.67545         0.000958      0.003301     -0.009779
     -0.12138      0.06265      4.71660         0.005325      0.015443     -0.000265
     -1.57468      0.95201      7.04085        -0.004628      0.003795     -0.001796
      4.31400     -2.62759      4.67862         0.005908      0.000180     -0.001034
      1.39093     -2.57714      4.74638         0.007831      0.003109      0.003498
      1.54691     -4.23286      2.36751        -0.000449     -0.019620      0.006457
      0.02763     -1.63774      2.34704        -0.006203     -0.002235     -0.004636
      0.01900     -1.65893      7.08364         0.001806     -0.006214      0.003899
      2.92252     -5.22566      9.35306         0.008347     -0.002323      0.001712
      2.89262     -5.15238      4.83966         0.002536     -0.003268      0.003718
      2.99969     -6.70841      2.39868        -0.010036      0.008506      0.001459
      4.23835     -9.26980      2.33157        -0.006030      0.006964     -0.005085
      1.43925     -4.11459      7.08078        -0.002090     -0.006841      0.000054
      2.84503     -6.77416      7.04794        -0.009439      0.007857     -0.003166
      1.42931      2.40305      4.71709        -0.006059      0.004959      0.000193
      4.35232     -7.62257      4.68425         0.012223     -0.013613      0.004771
 -----------------------------------------------------------------------------------
    total drift:                               -0.000773      0.000721     -0.000543


--------------------------------------------------------------------------------------------------------



  FREE ENERGIE OF THE ION-ELECTRON SYSTEM (eV)
  ---------------------------------------------------
  free  energy   TOTEN  =       -48.40659704 eV

  energy  without entropy=      -48.40659704  energy(sigma->0) =      -48.40659704
 


--------------------------------------------------------------------------------------------------------


    POTLOK:  cpu time      0.0354: real time      0.0356


--------------------------------------------------------------------------------------------------------


     LOOP+:  cpu time    632.2450: real time    636.5875
 -----------------------------------------------------------------------------
|                                                                             |
|           W    W    AA    RRRRR   N    N  II  N    N   GGGG   !!!           |
|           W    W   A  A   R    R  NN   N  II  NN   N  G    G  !!!           |
|           W    W  A    A  R    R  N N  N  II  N N  N  G       !!!           |
|           W WW W  AAAAAA  RRRRR   N  N N  II  N  N N  G  GGG   !            |
|           WW  WW  A    A  R   R   N   NN  II  N   NN  G    G                |
|           W    W  A    A  R    R  N    N  II  N    N   GGGG   !!!           |
|                                                                             |
|     Tetrahedron method does not include variations of the Fermi             |
|     occupations, so forces and stress will be inaccurate. We suggest        |
|     using a different smearing scheme ISMEAR = 1 or 2 for metals in         |
|     relaxations.                                                            |
|                                                                             |
 -----------------------------------------------------------------------------

    4ORBIT:  cpu time      0.0000: real time      0.0000
 BZINTS: Fermi energy:    8.357081;  144.000000 electrons
         Band energy: 0.531594E+03;  BLOECHL correction:   -0.128218

 total amount of memory used by VASP MPI-rank0   365244. kBytes
=======================================================================

   base      :      30000. kBytes
   nonl-proj :     134469. kBytes
   fftplans  :       1593. kBytes
   grid      :      10138. kBytes
   one-center:        497. kBytes
   wavefun   :     188547. kBytes
 
  
  
 General timing and accounting informations for this job:
 ========================================================
  
                  Total CPU time used (sec):      638.827
                            User time (sec):      638.291
                          System time (sec):        0.536
                         Elapsed time (sec):      643.749
  
                   Maximum memory used (kb):      638500.
                   Average memory used (kb):          N/A
  
                          Minor page faults:       154718
                          Major page faults:         2084
                 Voluntary context switches:         2219
